<LesHouchesEvents version="3.0">
<header>
<!--
#*********************************************************************
#                                                                    *
#                        MadGraph5_aMC@NLO                           *
#                                                                    *
#                           Going Beyond                             *
#                                                                    *
#                   http://madgraph.hep.uiuc.edu                     *
#                   http://madgraph.phys.ucl.ac.be                   *
#                   http://amcatnlo.cern.ch                          *
#                                                                    *
#                     The MadGraph5_aMC@NLO team                     *
#                                                                    *
#....................................................................*
#                                                                    *
# This file contains all the information necessary to reproduce      *
# the events generated:                                              *
#                                                                    *
# 1. software version                                                *
# 2. proc_card          : code generation info including model       *
# 3. param_card         : model primary parameters in the LH format  *
# 4. run_card           : running parameters (collider and cuts)     *
# 5. pythia_card        : present only if pythia has been run        *
# 6. pgs_card           : present only if pgs has been run           *
# 7. delphes_cards      : present only if delphes has been run       *
#                                                                    *
#                                                                    *
#*********************************************************************
-->
<MGVersion>
#2.6.5
</MGVersion>
<MG5ProcCard>
<![CDATA[
#************************************************************
#*                     MadGraph5_aMC@NLO                    *
#*                                                          *
#*                *                       *                 *
#*                  *        * *        *                   *
#*                    * * * * 5 * * * *                     *
#*                  *        * *        *                   *
#*                *                       *                 *
#*                                                          *
#*                                                          *
#*         VERSION 2.6.5                 2018-02-03         *
#*                                                          *
#*    The MadGraph5_aMC@NLO Development Team - Find us at   *
#*    https://server06.fynu.ucl.ac.be/projects/madgraph     *
#*                                                          *
#************************************************************
#*                                                          *
#*               Command File for MadGraph5_aMC@NLO         *
#*                                                          *
#*     run as ./bin/mg5_aMC  filename                       *
#*                                                          *
#************************************************************
set default_unset_couplings 99
set group_subprocesses Auto
set ignore_six_quark_processes False
set loop_optimized_output True
set loop_color_flows False
set gauge unitary
set complex_mass_scheme False
set max_npoint_for_channel 0
import model SMEFTsim_topU3l_MwScheme_UFO-massless_2t
define p = g u c d s u~ c~ d~ s~
define j = g u c d s u~ c~ d~ s~
define l+ = e+ mu+
define l- = e- mu-
define p = g u c d s u~ c~ d~ s~ b b~
define j = p
define l+ = e+ mu+ ta+
define l- = e- mu- ta-
define vl = ve vm vt
define vl~ = ve~ vm~ vt~
define had = u c d s u~ c~ d~ s~
generate    p p > t t~, (t > l+ vl b NPprop=0 SMHLOOP=0 NP=0), (t~ > h\
ad had b~ NPprop=0 SMHLOOP=0 NP=0)     @0  NPprop=0 SMHLOOP=0 NP=1
add process p p > t t~, (t > had had b NPprop=0 SMHLOOP=0 NP=0), (t~ >\
 l- vl~ b~ NPprop=0 SMHLOOP=0 NP=0)   @1  NPprop=0 SMHLOOP=0 NP=1
add process p p > t t~ j, (t > l+ vl b NPprop=0 SMHLOOP=0 NP=0), (t~ >\
 had had b~ NPprop=0 SMHLOOP=0 NP=0)    @2  NPprop=0 SMHLOOP=0 NP=1
add process p p > t t~ j, (t > had had b NPprop=0 SMHLOOP=0 NP=0), (t~\
 > l- vl~ b~ NPprop=0 SMHLOOP=0 NP=0) @3  NPprop=0 SMHLOOP=0 NP=1
output TT01j1lCA -nojpeg
]]>
</MG5ProcCard>
<MGProcCard>
<![CDATA[
#*********************************************************************
#                        MadGraph/MadEvent                           *
#                   http://madgraph.hep.uiuc.edu                     *
#                                                                    *
#                          proc_card.dat                             *
#*********************************************************************
#                                                                    *
#            This Files is generated by MADGRAPH 5                   *
#                                                                    *
# WARNING: This Files is generated for MADEVENT (compatibility issue)*
#          This files is NOT a valid MG4 proc_card.dat               *
#          Running this in MG4 will NEVER reproduce the result of MG5*
#                                                                    *
#*********************************************************************
#*********************************************************************
# Process(es) requested : mg2 input                                  *
#*********************************************************************
# Begin PROCESS # This is TAG. Do not modify this line
p p > t t~ , (t > l+ vl b , (t~ > had had b~ @0           #Process
# Be carefull the coupling are here in MG5 convention
NPprop=0
SMHLOOP=0
NP=0)
NPprop=0
SMHLOOP=0
NP=0)
NPprop=0
SMHLOOP=0
NP=1
          
end_coup           # End the couplings input

done               # this tells MG there are no more procs
# End PROCESS  # This is TAG. Do not modify this line
#*********************************************************************
# Model information                                                  *
#*********************************************************************
# Begin MODEL  # This is TAG. Do not modify this line
SMEFTsim_topU3l_MwScheme_UFO-massless_2t
# End   MODEL  # This is TAG. Do not modify this line
#*********************************************************************
# Start multiparticle definitions                                    *
#*********************************************************************
# Begin MULTIPARTICLES # This is TAG. Do not modify this line

# End  MULTIPARTICLES # This is TAG. Do not modify this line
]]>
</MGProcCard>
<MGRunCard>
<![CDATA[
#*********************************************************************
#                       MadGraph5_aMC@NLO                            *
#                                                                    *
#                     run_card.dat MadEvent                          *
#                                                                    *
#  This file is used to set the parameters of the run.               *
#                                                                    *
#  Some notation/conventions:                                        *
#                                                                    *
#   Lines starting with a '# ' are info or comments                  *
#                                                                    *
#   mind the format:   value    = variable     ! comment             *
#                                                                    *
#   To display more options, you can type the command:               *
#      update full_run_card                                          *
#*********************************************************************
#
#*******************                                                 
# Running parameters
#*******************                                                 
#                                                                    
#*********************************************************************
# Tag name for the run (one word)                                    *
#*********************************************************************
  tag_1	= run_tag ! name of the run 
#*********************************************************************
# Number of events and rnd seed                                      *
# Warning: Do not generate more than 1M events in a single run       *
# If you want to run Pythia, avoid more than 50k events in a run.    *
#*********************************************************************
  15000	= nevents ! Number of unweighted events requested 
 1230 = iseed ! rnd seed (0=assigned automatically=default))
#*********************************************************************
# Collider type and energy                                           *
# lpp: 0=No PDF, 1=proton, -1=antiproton, 2=photon from proton,      *
#                                         3=photon from electron     *
#*********************************************************************
  1	= lpp1 ! beam 1 type 
  1	= lpp2 ! beam 2 type
  6500.0	= ebeam1 ! beam 1 total energy in GeV
  6500.0	= ebeam2 ! beam 2 total energy in GeV
#*********************************************************************
# Beam polarization from -100 (left-handed) to 100 (right-handed)    *
#*********************************************************************
     0.0     = polbeam1 ! beam polarization for beam 1
     0.0     = polbeam2 ! beam polarization for beam 2

#*********************************************************************
# PDF CHOICE: this automatically fixes also alpha_s and its evol.    *
#*********************************************************************
  lhapdf	= pdlabel ! PDF set                                     
  325300	= lhaid ! if pdlabel=lhapdf, this is the lhapdf number
# To see heavy ion options: type "update ion_pdf"
#*********************************************************************
# Renormalization and factorization scales                           *
#*********************************************************************
  False	= fixed_ren_scale ! if .true. use fixed ren scale
  False	= fixed_fac_scale ! if .true. use fixed fac scale
  91.188	= scale ! fixed ren scale
  91.188	= dsqrt_q2fact1 ! fixed fact scale for pdf1
  91.188	= dsqrt_q2fact2 ! fixed fact scale for pdf2
  -1	= dynamical_scale_choice ! Choose one of the preselected dynamical choices
  1.0	= scalefact ! scale factor for event-by-event scales
#*********************************************************************
# Type and output format
#*********************************************************************
  True	= gridpack !True = setting up the grid pack
  -1.0	= time_of_flight ! threshold (in mm) below which the invariant livetime is not written (-1 means not written)
  3.0	= lhe_version ! Change the way clustering information pass to shower.        
  True	= clusinfo ! include clustering tag in output
  sum	= event_norm ! average/sum. Normalization of the weight in the LHEF

#*********************************************************************
# Matching parameter (MLM only)
#*********************************************************************
  1	= ickkw ! 0 no matching, 1 MLM
  1.0	= alpsfact ! scale factor for QCD emission vx
  False	= chcluster ! cluster only according to channel diag
  5	= asrwgtflavor ! highest quark flavor for a_s reweight
  True	= auto_ptj_mjj ! Automatic setting of ptj and mjj if xqcut >0
                                   ! (turn off for VBF and single top processes) 
  10.0	= xqcut ! minimum kt jet measure between partons
#*********************************************************************
#
#*********************************************************************
# handling of the helicities:
#  0: sum over all helicities
#  1: importance sampling over helicities
#*********************************************************************
  0	= nhel ! using helicities importance sampling or not.
#*********************************************************************
# Generation bias, check the wiki page below for more information:   *
#  'cp3.irmp.ucl.ac.be/projects/madgraph/wiki/LOEventGenerationBias' *
#*********************************************************************
  None	= bias_module ! Bias type of bias, [None, ptj_bias, -custom_folder-]
  {}	= bias_parameters ! Specifies the parameters of the module.
#
#*******************************                                                 
# Parton level cuts definition *
#*******************************                                     
#                                                                    
#
#*********************************************************************
# BW cutoff (M+/-bwcutoff*Gamma) ! Define on/off-shell for "$" and decay  
#*********************************************************************
  15.0	= bwcutoff ! (M+/-bwcutoff*Gamma)
#*********************************************************************
# Apply pt/E/eta/dr/mij/kt_durham cuts on decay products or not
# (note that etmiss/ptll/ptheavy/ht/sorted cuts always apply)
#*********************************************************************
  True	= cut_decays ! Cut decay products 
#*********************************************************************
# Standard Cuts                                                      *
#*********************************************************************
# Minimum and maximum pt's (for max, -1 means no cut)                *
#*********************************************************************
  10.0	= ptj ! minimum pt for the jets 
  10.0	= ptb ! minimum pt for the b 
  0.0	= pta ! minimum pt for the photons 
  0.0	= ptl ! minimum pt for the charged leptons 
  0.0	= misset ! minimum missing Et (sum of neutrino's momenta)
  -1.0	= ptjmax ! maximum pt for the jets
  -1.0	= ptbmax ! maximum pt for the b
  -1.0	= ptamax ! maximum pt for the photons
  -1.0	= ptlmax ! maximum pt for the charged leptons
  -1.0	= missetmax ! maximum missing Et (sum of neutrino's momenta)
  {}	= pt_min_pdg ! pt cut for other particles (use pdg code). Applied on particle and anti-particle
  {}	= pt_max_pdg ! pt cut for other particles (syntax e.g. {6: 100, 25: 50}) 
#*********************************************************************
# Minimum and maximum E's (in the center of mass frame)              *
#*********************************************************************
  0.0	= ej ! minimum E for the jets 
  0.0	= eb ! minimum E for the b 
  0.0	= ea ! minimum E for the photons 
  0.0	= el ! minimum E for the charged leptons 
  -1.0	= ejmax ! maximum E for the jets
  -1.0	= ebmax ! maximum E for the b
  -1.0	= eamax ! maximum E for the photons
  -1.0	= elmax ! maximum E for the charged leptons
  {}	= e_min_pdg ! E cut for other particles (use pdg code). Applied on particle and anti-particle
  {}	= e_max_pdg ! E cut for other particles (syntax e.g. {6: 100, 25: 50}) 
#*********************************************************************
# Maximum and minimum absolute rapidity (for max, -1 means no cut)   *
#*********************************************************************
  -1.0	= etaj ! max rap for the jets 
  -1.0	= etab ! max rap for the b
  -1.0	= etaa ! max rap for the photons 
  5.0	= etal ! max rap for the charged leptons 
  0.0	= etajmin ! min rap for the jets
  0.0	= etabmin ! min rap for the b
  0.0	= etaamin ! min rap for the photons
  0.0	= etalmin ! main rap for the charged leptons
  {}	= eta_min_pdg ! rap cut for other particles (use pdg code). Applied on particle and anti-particle
  {}	= eta_max_pdg ! rap cut for other particles (syntax e.g. {6: 2.5, 23: 5})
#*********************************************************************
# Minimum and maximum DeltaR distance                                *
#*********************************************************************
  0.0	= drjj ! min distance between jets 
  0.0	= drbb ! min distance between b's 
  0.0	= drll ! min distance between leptons 
  0.0	= draa ! min distance between gammas 
  0.0	= drbj ! min distance between b and jet 
  0.0	= draj ! min distance between gamma and jet 
  0.0	= drjl ! min distance between jet and lepton 
  0.0	= drab ! min distance between gamma and b 
  0.0	= drbl ! min distance between b and lepton 
  0.0	= dral ! min distance between gamma and lepton 
  -1.0	= drjjmax ! max distance between jets
  -1.0	= drbbmax ! max distance between b's
  -1.0	= drllmax ! max distance between leptons
  -1.0	= draamax ! max distance between gammas
  -1.0	= drbjmax ! max distance between b and jet
  -1.0	= drajmax ! max distance between gamma and jet
  -1.0	= drjlmax ! max distance between jet and lepton
  -1.0	= drabmax ! max distance between gamma and b
  -1.0	= drblmax ! max distance between b and lepton
  -1.0	= dralmax ! maxdistance between gamma and lepton
#*********************************************************************
# Minimum and maximum invariant mass for pairs                       *
# WARNING: for four lepton final state mmll cut require to have      *
#          different lepton masses for each flavor!                  *           
#*********************************************************************
  0.0	= mmjj ! min invariant mass of a jet pair 
  0.0	= mmbb ! min invariant mass of a b pair 
  0.0	= mmaa ! min invariant mass of gamma gamma pair
  0.0	= mmll ! min invariant mass of l+l- (same flavour) lepton pair
  -1.0	= mmjjmax ! max invariant mass of a jet pair
  -1.0	= mmbbmax ! max invariant mass of a b pair
  -1.0	= mmaamax ! max invariant mass of gamma gamma pair
  -1.0	= mmllmax ! max invariant mass of l+l- (same flavour) lepton pair
  {}	= mxx_min_pdg ! min invariant mass of a pair of particles X/X~ (e.g. {6:250})
  {'default': False}	= mxx_only_part_antipart ! if True the invariant mass is applied only 
                       ! to pairs of particle/antiparticle and not to pairs of the same pdg codes.  
#*********************************************************************
# Minimum and maximum invariant mass for all letpons                 *
#*********************************************************************
  0.0	= mmnl ! min invariant mass for all letpons (l+- and vl) 
  -1.0	= mmnlmax ! max invariant mass for all letpons (l+- and vl) 
#*********************************************************************
# Minimum and maximum pt for 4-momenta sum of leptons                *
#*********************************************************************
  0.0	= ptllmin ! Minimum pt for 4-momenta sum of leptons(l and vl)
  -1.0	= ptllmax ! Maximum pt for 4-momenta sum of leptons(l and vl)
#*********************************************************************
# Inclusive cuts                                                     *
#*********************************************************************
  0.0	= ptheavy ! minimum pt for at least one heavy final state
  0.0	= xptj ! minimum pt for at least one jet  
  0.0	= xptb ! minimum pt for at least one b 
  0.0	= xpta ! minimum pt for at least one photon 
  0.0	= xptl ! minimum pt for at least one charged lepton 
#*********************************************************************
# Control the pt's of the jets sorted by pt                          *
#*********************************************************************
  0.0	= ptj1min ! minimum pt for the leading jet in pt
  0.0	= ptj2min ! minimum pt for the second jet in pt
  0.0	= ptj3min ! minimum pt for the third jet in pt
  0.0	= ptj4min ! minimum pt for the fourth jet in pt
  -1.0	= ptj1max ! maximum pt for the leading jet in pt 
  -1.0	= ptj2max ! maximum pt for the second jet in pt
  -1.0	= ptj3max ! maximum pt for the third jet in pt
  -1.0	= ptj4max ! maximum pt for the fourth jet in pt
  0	= cutuse ! reject event if fails any (0) / all (1) jet pt cuts
#*********************************************************************
# Control the pt's of leptons sorted by pt                           *
#*********************************************************************
  0.0	= ptl1min ! minimum pt for the leading lepton in pt
  0.0	= ptl2min ! minimum pt for the second lepton in pt
  0.0	= ptl3min ! minimum pt for the third lepton in pt
  0.0	= ptl4min ! minimum pt for the fourth lepton in pt
  -1.0	= ptl1max ! maximum pt for the leading lepton in pt 
  -1.0	= ptl2max ! maximum pt for the second lepton in pt
  -1.0	= ptl3max ! maximum pt for the third lepton in pt
  -1.0	= ptl4max ! maximum pt for the fourth lepton in pt
#*********************************************************************
# Control the Ht(k)=Sum of k leading jets                            *
#*********************************************************************
  0.0	= htjmin ! minimum jet HT=Sum(jet pt)
  -1.0	= htjmax ! maximum jet HT=Sum(jet pt)
  0.0	= ihtmin !inclusive Ht for all partons (including b)
  -1.0	= ihtmax !inclusive Ht for all partons (including b)
  0.0	= ht2min ! minimum Ht for the two leading jets
  0.0	= ht3min ! minimum Ht for the three leading jets
  0.0	= ht4min ! minimum Ht for the four leading jets
  -1.0	= ht2max ! maximum Ht for the two leading jets
  -1.0	= ht3max ! maximum Ht for the three leading jets
  -1.0	= ht4max ! maximum Ht for the four leading jets
#***********************************************************************
# Photon-isolation cuts, according to hep-ph/9801442                   *
# When ptgmin=0, all the other parameters are ignored                  *
# When ptgmin>0, pta and draj are not going to be used                 *
#***********************************************************************
  0.0	= ptgmin ! Min photon transverse momentum
  0.4	= r0gamma ! Radius of isolation code
  1.0	= xn ! n parameter of eq.(3.4) in hep-ph/9801442
  1.0	= epsgamma ! epsilon_gamma parameter of eq.(3.4) in hep-ph/9801442
  True	= isoem ! isolate photons from EM energy (photons and leptons)
#*********************************************************************
# WBF cuts                                                           *
#*********************************************************************
  0.0	= xetamin ! minimum rapidity for two jets in the WBF case  
  0.0	= deltaeta ! minimum rapidity for two jets in the WBF case 
#***********************************************************************
# Turn on either the ktdurham or ptlund cut to activate                *
# CKKW(L) merging with Pythia8 [arXiv:1410.3012, arXiv:1109.4829]      *
#***********************************************************************
  -1.0	= ktdurham 
  0.4	= dparameter 
  -1.0	= ptlund 
  21, 1, 2, 3, 4, 5, 6	= pdgs_for_merging_cut ! PDGs for two cuts above   
#*********************************************************************
# maximal pdg code for quark to be considered as a light jet         *
# (otherwise b cuts are applied)                                     *
#*********************************************************************
  5	= maxjetflavor ! Maximum jet pdg code
#*********************************************************************
#
#*********************************************************************
# Store info for systematics studies                                 *
# WARNING: Do not use for interference type of computation           *
#*********************************************************************
  True	= use_syst ! Enable systematics studies
#
  None	= systematics_program ! none, systematics [python], SysCalc [depreceted, C++]
['--mur=0.5,1,2', '--muf=0.5,1,2', '--pdf=errorset'] = systematics_arguments ! see: https://cp3.irmp.ucl.ac.be/projects/madgraph/wiki/Systematics#Systematicspythonmodule
# Syscalc is deprecated but to see the associate options type'update syscalc'#********************************************************************* 
#  Additional hidden parameters
#*********************************************************************
  0.0	= ptonium # hidden_parameter
]]>
</MGRunCard>
<slha>
######################################################################
## PARAM_CARD AUTOMATICALY GENERATED BY MG5                       ####
######################################################################
###################################
## INFORMATION FOR MASS
###################################
BLOCK MASS # 
      5 4.180000e+00 # mb
      6 1.727600e+02 # mt
      23 9.118760e+01 # mz
      25 1.250900e+02 # mh
      1 0.000000e+00 # d : 0.0
      2 0.000000e+00 # u : 0.0
      3 0.000000e+00 # s : 0.0
      4 0.000000e+00 # c : 0.0
      11 0.000000e+00 # e- : 0.0
      12 0.000000e+00 # ve : 0.0
      13 0.000000e+00 # mu- : 0.0
      14 0.000000e+00 # vm : 0.0
      15 0.000000e+00 # ta- : 0.0
      16 0.000000e+00 # vt : 0.0
      21 0.000000e+00 # g : 0.0
      22 0.000000e+00 # a : 0.0
      9000005 9.118760e+01 # z1 : mz
      9000006 8.038700e+01 # w1+ : mwsm
      9000007 1.727600e+02 # t1 : mt
      9000008 1.250900e+02 # h1 : mh
      24 8.038700e+01 # w+ : mw
###################################
## INFORMATION FOR SMEFT
###################################
BLOCK SMEFT # 
      15 1.000000e-11 # ctgre
      38 7.100000e-11 # cjj31
      40 1.700000e-11 # cqj11
      41 1.500000e-11 # cqj18
      42 1.800000e-11 # cqj31
      43 1.600000e-11 # cqj38
      45 1.000000e-10 # cqq8
      49 2.600000e-11 # ctu1
      58 2.700000e-11 # ctd1
      62 2.200000e-11 # ctd8
      67 2.800000e-11 # cqu1
      69 2.400000e-11 # cqu8
      70 7.300000e-11 # ctj1
      71 7.200000e-11 # ctj8
      72 1.000000e-10 # cqt1
      73 1.000000e-10 # cqt8
      76 2.900000e-11 # cqd1
      77 2.500000e-11 # cqd8
###################################
## INFORMATION FOR SMEFTCUTOFF
###################################
BLOCK SMEFTCUTOFF # 
      1 1.000000e+03 # lambdasmeft
###################################
## INFORMATION FOR SMINPUTS
###################################
BLOCK SMINPUTS # 
      1 8.038700e+01 # mw
      2 1.166379e-05 # gf
      3 1.179000e-01 # as
###################################
## INFORMATION FOR YUKAWA
###################################
BLOCK YUKAWA # 
      5 4.180000e+00 # ymb
      6 1.727600e+02 # ymt
###################################
## INFORMATION FOR DECAY
###################################
DECAY 6 1.330000e+00 # wt
DECAY 23 2.495200e+00 # wz
DECAY 24 2.085000e+00 # ww
DECAY 25 4.070000e-03 # wh
DECAY 1 0.000000e+00 # d : 0.0
DECAY 2 0.000000e+00 # u : 0.0
DECAY 3 0.000000e+00 # s : 0.0
DECAY 4 0.000000e+00 # c : 0.0
DECAY 5 0.000000e+00 # b : 0.0
DECAY 11 0.000000e+00 # e- : 0.0
DECAY 12 0.000000e+00 # ve : 0.0
DECAY 13 0.000000e+00 # mu- : 0.0
DECAY 14 0.000000e+00 # vm : 0.0
DECAY 15 0.000000e+00 # ta- : 0.0
DECAY 16 0.000000e+00 # vt : 0.0
DECAY 21 0.000000e+00 # g : 0.0
DECAY 22 0.000000e+00 # a : 0.0
DECAY 9000005 2.495200e+00 # z1 : wz
DECAY 9000006 2.085000e+00 # w1+ : ww
DECAY 9000007 1.330000e+00 # t1 : wt
DECAY 9000008 4.070000e-03 # h1 : wh
###################################
## INFORMATION FOR QNUMBERS 9000005
###################################
BLOCK QNUMBERS 9000005 #  z1
      1 0 # 3 times electric charge
      2 3 # number of spin states (2s+1)
      3 1 # colour rep (1: singlet, 3: triplet, 8: octet)
      4 0 # particle/antiparticle distinction (0=own anti)
###################################
## INFORMATION FOR QNUMBERS 9000006
###################################
BLOCK QNUMBERS 9000006 #  w1+
      1 3 # 3 times electric charge
      2 3 # number of spin states (2s+1)
      3 1 # colour rep (1: singlet, 3: triplet, 8: octet)
      4 1 # particle/antiparticle distinction (0=own anti)
###################################
## INFORMATION FOR QNUMBERS 9000007
###################################
BLOCK QNUMBERS 9000007 #  t1
      1 2 # 3 times electric charge
      2 2 # number of spin states (2s+1)
      3 3 # colour rep (1: singlet, 3: triplet, 8: octet)
      4 1 # particle/antiparticle distinction (0=own anti)
###################################
## INFORMATION FOR QNUMBERS 9000008
###################################
BLOCK QNUMBERS 9000008 #  h1
      1 0 # 3 times electric charge
      2 1 # number of spin states (2s+1)
      3 1 # colour rep (1: singlet, 3: triplet, 8: octet)
      4 0 # particle/antiparticle distinction (0=own anti)
</slha>
<initrwgt>
<weightgroup name='mg_reweighting' weight_name_strategy='includeIdInWeightName'>
<weight id='dummy'></weight>
<weight id='ctGRe_0p_cQj18_0p_cQj38_0p_cQj11_0p_cjj31_0p_ctu8_0p_ctd8_0p_ctj8_0p_cQu8_0p_cQd8_0p_ctu1_0p_ctd1_0p_ctj1_0p_cQu1_0p_cQd1_0p'>set param_card smeft 15 0.0 # orig: 1e-11
set param_card smeft 38 0.0 # orig: 7.1e-11
set param_card smeft 40 0.0 # orig: 1.7e-11
set param_card smeft 41 0.0 # orig: 1.5e-11
set param_card smeft 43 0.0 # orig: 1.6e-11
set param_card smeft 49 0.0 # orig: 2.6e-11
set param_card smeft 58 0.0 # orig: 2.7e-11
set param_card smeft 62 0.0 # orig: 2.2e-11
set param_card smeft 67 0.0 # orig: 2.8e-11
set param_card smeft 69 0.0 # orig: 2.4e-11
set param_card smeft 70 0.0 # orig: 7.3e-11
set param_card smeft 71 0.0 # orig: 7.2e-11
set param_card smeft 76 0.0 # orig: 2.9e-11
set param_card smeft 77 0.0 # orig: 2.5e-11
</weight>
<weight id='ctGRe_1p_cQj18_0p_cQj38_0p_cQj11_0p_cjj31_0p_ctu8_0p_ctd8_0p_ctj8_0p_cQu8_0p_cQd8_0p_ctu1_0p_ctd1_0p_ctj1_0p_cQu1_0p_cQd1_0p'>set param_card smeft 15 1.0 # orig: 1e-11
set param_card smeft 38 0.0 # orig: 7.1e-11
set param_card smeft 40 0.0 # orig: 1.7e-11
set param_card smeft 41 0.0 # orig: 1.5e-11
set param_card smeft 43 0.0 # orig: 1.6e-11
set param_card smeft 49 0.0 # orig: 2.6e-11
set param_card smeft 58 0.0 # orig: 2.7e-11
set param_card smeft 62 0.0 # orig: 2.2e-11
set param_card smeft 67 0.0 # orig: 2.8e-11
set param_card smeft 69 0.0 # orig: 2.4e-11
set param_card smeft 70 0.0 # orig: 7.3e-11
set param_card smeft 71 0.0 # orig: 7.2e-11
set param_card smeft 76 0.0 # orig: 2.9e-11
set param_card smeft 77 0.0 # orig: 2.5e-11
</weight>
<weight id='ctGRe_0p_cQj18_1p_cQj38_0p_cQj11_0p_cjj31_0p_ctu8_0p_ctd8_0p_ctj8_0p_cQu8_0p_cQd8_0p_ctu1_0p_ctd1_0p_ctj1_0p_cQu1_0p_cQd1_0p'>set param_card smeft 15 0.0 # orig: 1e-11
set param_card smeft 38 0.0 # orig: 7.1e-11
set param_card smeft 40 0.0 # orig: 1.7e-11
set param_card smeft 41 1.0 # orig: 1.5e-11
set param_card smeft 43 0.0 # orig: 1.6e-11
set param_card smeft 49 0.0 # orig: 2.6e-11
set param_card smeft 58 0.0 # orig: 2.7e-11
set param_card smeft 62 0.0 # orig: 2.2e-11
set param_card smeft 67 0.0 # orig: 2.8e-11
set param_card smeft 69 0.0 # orig: 2.4e-11
set param_card smeft 70 0.0 # orig: 7.3e-11
set param_card smeft 71 0.0 # orig: 7.2e-11
set param_card smeft 76 0.0 # orig: 2.9e-11
set param_card smeft 77 0.0 # orig: 2.5e-11
</weight>
<weight id='ctGRe_0p_cQj18_0p_cQj38_1p_cQj11_0p_cjj31_0p_ctu8_0p_ctd8_0p_ctj8_0p_cQu8_0p_cQd8_0p_ctu1_0p_ctd1_0p_ctj1_0p_cQu1_0p_cQd1_0p'>set param_card smeft 15 0.0 # orig: 1e-11
set param_card smeft 38 0.0 # orig: 7.1e-11
set param_card smeft 40 0.0 # orig: 1.7e-11
set param_card smeft 41 0.0 # orig: 1.5e-11
set param_card smeft 43 1.0 # orig: 1.6e-11
set param_card smeft 49 0.0 # orig: 2.6e-11
set param_card smeft 58 0.0 # orig: 2.7e-11
set param_card smeft 62 0.0 # orig: 2.2e-11
set param_card smeft 67 0.0 # orig: 2.8e-11
set param_card smeft 69 0.0 # orig: 2.4e-11
set param_card smeft 70 0.0 # orig: 7.3e-11
set param_card smeft 71 0.0 # orig: 7.2e-11
set param_card smeft 76 0.0 # orig: 2.9e-11
set param_card smeft 77 0.0 # orig: 2.5e-11
</weight>
<weight id='ctGRe_0p_cQj18_0p_cQj38_0p_cQj11_1p_cjj31_0p_ctu8_0p_ctd8_0p_ctj8_0p_cQu8_0p_cQd8_0p_ctu1_0p_ctd1_0p_ctj1_0p_cQu1_0p_cQd1_0p'>set param_card smeft 15 0.0 # orig: 1e-11
set param_card smeft 38 0.0 # orig: 7.1e-11
set param_card smeft 40 1.0 # orig: 1.7e-11
set param_card smeft 41 0.0 # orig: 1.5e-11
set param_card smeft 43 0.0 # orig: 1.6e-11
set param_card smeft 49 0.0 # orig: 2.6e-11
set param_card smeft 58 0.0 # orig: 2.7e-11
set param_card smeft 62 0.0 # orig: 2.2e-11
set param_card smeft 67 0.0 # orig: 2.8e-11
set param_card smeft 69 0.0 # orig: 2.4e-11
set param_card smeft 70 0.0 # orig: 7.3e-11
set param_card smeft 71 0.0 # orig: 7.2e-11
set param_card smeft 76 0.0 # orig: 2.9e-11
set param_card smeft 77 0.0 # orig: 2.5e-11
</weight>
<weight id='ctGRe_0p_cQj18_0p_cQj38_0p_cQj11_0p_cjj31_1p_ctu8_0p_ctd8_0p_ctj8_0p_cQu8_0p_cQd8_0p_ctu1_0p_ctd1_0p_ctj1_0p_cQu1_0p_cQd1_0p'>set param_card smeft 15 0.0 # orig: 1e-11
set param_card smeft 38 1.0 # orig: 7.1e-11
set param_card smeft 40 0.0 # orig: 1.7e-11
set param_card smeft 41 0.0 # orig: 1.5e-11
set param_card smeft 43 0.0 # orig: 1.6e-11
set param_card smeft 49 0.0 # orig: 2.6e-11
set param_card smeft 58 0.0 # orig: 2.7e-11
set param_card smeft 62 0.0 # orig: 2.2e-11
set param_card smeft 67 0.0 # orig: 2.8e-11
set param_card smeft 69 0.0 # orig: 2.4e-11
set param_card smeft 70 0.0 # orig: 7.3e-11
set param_card smeft 71 0.0 # orig: 7.2e-11
set param_card smeft 76 0.0 # orig: 2.9e-11
set param_card smeft 77 0.0 # orig: 2.5e-11
</weight>
<weight id='ctGRe_0p_cQj18_0p_cQj38_0p_cQj11_0p_cjj31_0p_ctu8_1p_ctd8_0p_ctj8_0p_cQu8_0p_cQd8_0p_ctu1_0p_ctd1_0p_ctj1_0p_cQu1_0p_cQd1_0p'>set param_card smeft 15 0.0 # orig: 1e-11
set param_card smeft 38 0.0 # orig: 7.1e-11
set param_card smeft 40 0.0 # orig: 1.7e-11
set param_card smeft 41 0.0 # orig: 1.5e-11
set param_card smeft 43 0.0 # orig: 1.6e-11
set param_card smeft 49 0.0 # orig: 2.6e-11
set param_card smeft 58 0.0 # orig: 2.7e-11
set param_card smeft 62 0.0 # orig: 2.2e-11
set param_card smeft 67 0.0 # orig: 2.8e-11
set param_card smeft 69 0.0 # orig: 2.4e-11
set param_card smeft 70 0.0 # orig: 7.3e-11
set param_card smeft 71 0.0 # orig: 7.2e-11
set param_card smeft 76 0.0 # orig: 2.9e-11
set param_card smeft 77 0.0 # orig: 2.5e-11
</weight>
<weight id='ctGRe_0p_cQj18_0p_cQj38_0p_cQj11_0p_cjj31_0p_ctu8_0p_ctd8_1p_ctj8_0p_cQu8_0p_cQd8_0p_ctu1_0p_ctd1_0p_ctj1_0p_cQu1_0p_cQd1_0p'>set param_card smeft 15 0.0 # orig: 1e-11
set param_card smeft 38 0.0 # orig: 7.1e-11
set param_card smeft 40 0.0 # orig: 1.7e-11
set param_card smeft 41 0.0 # orig: 1.5e-11
set param_card smeft 43 0.0 # orig: 1.6e-11
set param_card smeft 49 0.0 # orig: 2.6e-11
set param_card smeft 58 0.0 # orig: 2.7e-11
set param_card smeft 62 1.0 # orig: 2.2e-11
set param_card smeft 67 0.0 # orig: 2.8e-11
set param_card smeft 69 0.0 # orig: 2.4e-11
set param_card smeft 70 0.0 # orig: 7.3e-11
set param_card smeft 71 0.0 # orig: 7.2e-11
set param_card smeft 76 0.0 # orig: 2.9e-11
set param_card smeft 77 0.0 # orig: 2.5e-11
</weight>
<weight id='ctGRe_0p_cQj18_0p_cQj38_0p_cQj11_0p_cjj31_0p_ctu8_0p_ctd8_0p_ctj8_1p_cQu8_0p_cQd8_0p_ctu1_0p_ctd1_0p_ctj1_0p_cQu1_0p_cQd1_0p'>set param_card smeft 15 0.0 # orig: 1e-11
set param_card smeft 38 0.0 # orig: 7.1e-11
set param_card smeft 40 0.0 # orig: 1.7e-11
set param_card smeft 41 0.0 # orig: 1.5e-11
set param_card smeft 43 0.0 # orig: 1.6e-11
set param_card smeft 49 0.0 # orig: 2.6e-11
set param_card smeft 58 0.0 # orig: 2.7e-11
set param_card smeft 62 0.0 # orig: 2.2e-11
set param_card smeft 67 0.0 # orig: 2.8e-11
set param_card smeft 69 0.0 # orig: 2.4e-11
set param_card smeft 70 0.0 # orig: 7.3e-11
set param_card smeft 71 1.0 # orig: 7.2e-11
set param_card smeft 76 0.0 # orig: 2.9e-11
set param_card smeft 77 0.0 # orig: 2.5e-11
</weight>
<weight id='ctGRe_0p_cQj18_0p_cQj38_0p_cQj11_0p_cjj31_0p_ctu8_0p_ctd8_0p_ctj8_0p_cQu8_1p_cQd8_0p_ctu1_0p_ctd1_0p_ctj1_0p_cQu1_0p_cQd1_0p'>set param_card smeft 15 0.0 # orig: 1e-11
set param_card smeft 38 0.0 # orig: 7.1e-11
set param_card smeft 40 0.0 # orig: 1.7e-11
set param_card smeft 41 0.0 # orig: 1.5e-11
set param_card smeft 43 0.0 # orig: 1.6e-11
set param_card smeft 49 0.0 # orig: 2.6e-11
set param_card smeft 58 0.0 # orig: 2.7e-11
set param_card smeft 62 0.0 # orig: 2.2e-11
set param_card smeft 67 0.0 # orig: 2.8e-11
set param_card smeft 69 1.0 # orig: 2.4e-11
set param_card smeft 70 0.0 # orig: 7.3e-11
set param_card smeft 71 0.0 # orig: 7.2e-11
set param_card smeft 76 0.0 # orig: 2.9e-11
set param_card smeft 77 0.0 # orig: 2.5e-11
</weight>
<weight id='ctGRe_0p_cQj18_0p_cQj38_0p_cQj11_0p_cjj31_0p_ctu8_0p_ctd8_0p_ctj8_0p_cQu8_0p_cQd8_1p_ctu1_0p_ctd1_0p_ctj1_0p_cQu1_0p_cQd1_0p'>set param_card smeft 15 0.0 # orig: 1e-11
set param_card smeft 38 0.0 # orig: 7.1e-11
set param_card smeft 40 0.0 # orig: 1.7e-11
set param_card smeft 41 0.0 # orig: 1.5e-11
set param_card smeft 43 0.0 # orig: 1.6e-11
set param_card smeft 49 0.0 # orig: 2.6e-11
set param_card smeft 58 0.0 # orig: 2.7e-11
set param_card smeft 62 0.0 # orig: 2.2e-11
set param_card smeft 67 0.0 # orig: 2.8e-11
set param_card smeft 69 0.0 # orig: 2.4e-11
set param_card smeft 70 0.0 # orig: 7.3e-11
set param_card smeft 71 0.0 # orig: 7.2e-11
set param_card smeft 76 0.0 # orig: 2.9e-11
set param_card smeft 77 1.0 # orig: 2.5e-11
</weight>
<weight id='ctGRe_0p_cQj18_0p_cQj38_0p_cQj11_0p_cjj31_0p_ctu8_0p_ctd8_0p_ctj8_0p_cQu8_0p_cQd8_0p_ctu1_1p_ctd1_0p_ctj1_0p_cQu1_0p_cQd1_0p'>set param_card smeft 15 0.0 # orig: 1e-11
set param_card smeft 38 0.0 # orig: 7.1e-11
set param_card smeft 40 0.0 # orig: 1.7e-11
set param_card smeft 41 0.0 # orig: 1.5e-11
set param_card smeft 43 0.0 # orig: 1.6e-11
set param_card smeft 49 1.0 # orig: 2.6e-11
set param_card smeft 58 0.0 # orig: 2.7e-11
set param_card smeft 62 0.0 # orig: 2.2e-11
set param_card smeft 67 0.0 # orig: 2.8e-11
set param_card smeft 69 0.0 # orig: 2.4e-11
set param_card smeft 70 0.0 # orig: 7.3e-11
set param_card smeft 71 0.0 # orig: 7.2e-11
set param_card smeft 76 0.0 # orig: 2.9e-11
set param_card smeft 77 0.0 # orig: 2.5e-11
</weight>
<weight id='ctGRe_0p_cQj18_0p_cQj38_0p_cQj11_0p_cjj31_0p_ctu8_0p_ctd8_0p_ctj8_0p_cQu8_0p_cQd8_0p_ctu1_0p_ctd1_1p_ctj1_0p_cQu1_0p_cQd1_0p'>set param_card smeft 15 0.0 # orig: 1e-11
set param_card smeft 38 0.0 # orig: 7.1e-11
set param_card smeft 40 0.0 # orig: 1.7e-11
set param_card smeft 41 0.0 # orig: 1.5e-11
set param_card smeft 43 0.0 # orig: 1.6e-11
set param_card smeft 49 0.0 # orig: 2.6e-11
set param_card smeft 58 1.0 # orig: 2.7e-11
set param_card smeft 62 0.0 # orig: 2.2e-11
set param_card smeft 67 0.0 # orig: 2.8e-11
set param_card smeft 69 0.0 # orig: 2.4e-11
set param_card smeft 70 0.0 # orig: 7.3e-11
set param_card smeft 71 0.0 # orig: 7.2e-11
set param_card smeft 76 0.0 # orig: 2.9e-11
set param_card smeft 77 0.0 # orig: 2.5e-11
</weight>
<weight id='ctGRe_0p_cQj18_0p_cQj38_0p_cQj11_0p_cjj31_0p_ctu8_0p_ctd8_0p_ctj8_0p_cQu8_0p_cQd8_0p_ctu1_0p_ctd1_0p_ctj1_1p_cQu1_0p_cQd1_0p'>set param_card smeft 15 0.0 # orig: 1e-11
set param_card smeft 38 0.0 # orig: 7.1e-11
set param_card smeft 40 0.0 # orig: 1.7e-11
set param_card smeft 41 0.0 # orig: 1.5e-11
set param_card smeft 43 0.0 # orig: 1.6e-11
set param_card smeft 49 0.0 # orig: 2.6e-11
set param_card smeft 58 0.0 # orig: 2.7e-11
set param_card smeft 62 0.0 # orig: 2.2e-11
set param_card smeft 67 0.0 # orig: 2.8e-11
set param_card smeft 69 0.0 # orig: 2.4e-11
set param_card smeft 70 1.0 # orig: 7.3e-11
set param_card smeft 71 0.0 # orig: 7.2e-11
set param_card smeft 76 0.0 # orig: 2.9e-11
set param_card smeft 77 0.0 # orig: 2.5e-11
</weight>
<weight id='ctGRe_0p_cQj18_0p_cQj38_0p_cQj11_0p_cjj31_0p_ctu8_0p_ctd8_0p_ctj8_0p_cQu8_0p_cQd8_0p_ctu1_0p_ctd1_0p_ctj1_0p_cQu1_1p_cQd1_0p'>set param_card smeft 15 0.0 # orig: 1e-11
set param_card smeft 38 0.0 # orig: 7.1e-11
set param_card smeft 40 0.0 # orig: 1.7e-11
set param_card smeft 41 0.0 # orig: 1.5e-11
set param_card smeft 43 0.0 # orig: 1.6e-11
set param_card smeft 49 0.0 # orig: 2.6e-11
set param_card smeft 58 0.0 # orig: 2.7e-11
set param_card smeft 62 0.0 # orig: 2.2e-11
set param_card smeft 67 1.0 # orig: 2.8e-11
set param_card smeft 69 0.0 # orig: 2.4e-11
set param_card smeft 70 0.0 # orig: 7.3e-11
set param_card smeft 71 0.0 # orig: 7.2e-11
set param_card smeft 76 0.0 # orig: 2.9e-11
set param_card smeft 77 0.0 # orig: 2.5e-11
</weight>
<weight id='ctGRe_0p_cQj18_0p_cQj38_0p_cQj11_0p_cjj31_0p_ctu8_0p_ctd8_0p_ctj8_0p_cQu8_0p_cQd8_0p_ctu1_0p_ctd1_0p_ctj1_0p_cQu1_0p_cQd1_1p'>set param_card smeft 15 0.0 # orig: 1e-11
set param_card smeft 38 0.0 # orig: 7.1e-11
set param_card smeft 40 0.0 # orig: 1.7e-11
set param_card smeft 41 0.0 # orig: 1.5e-11
set param_card smeft 43 0.0 # orig: 1.6e-11
set param_card smeft 49 0.0 # orig: 2.6e-11
set param_card smeft 58 0.0 # orig: 2.7e-11
set param_card smeft 62 0.0 # orig: 2.2e-11
set param_card smeft 67 0.0 # orig: 2.8e-11
set param_card smeft 69 0.0 # orig: 2.4e-11
set param_card smeft 70 0.0 # orig: 7.3e-11
set param_card smeft 71 0.0 # orig: 7.2e-11
set param_card smeft 76 1.0 # orig: 2.9e-11
set param_card smeft 77 0.0 # orig: 2.5e-11
</weight>
<weight id='ctGRe_2p_cQj18_0p_cQj38_0p_cQj11_0p_cjj31_0p_ctu8_0p_ctd8_0p_ctj8_0p_cQu8_0p_cQd8_0p_ctu1_0p_ctd1_0p_ctj1_0p_cQu1_0p_cQd1_0p'>set param_card smeft 15 2.0 # orig: 1e-11
set param_card smeft 38 0.0 # orig: 7.1e-11
set param_card smeft 40 0.0 # orig: 1.7e-11
set param_card smeft 41 0.0 # orig: 1.5e-11
set param_card smeft 43 0.0 # orig: 1.6e-11
set param_card smeft 49 0.0 # orig: 2.6e-11
set param_card smeft 58 0.0 # orig: 2.7e-11
set param_card smeft 62 0.0 # orig: 2.2e-11
set param_card smeft 67 0.0 # orig: 2.8e-11
set param_card smeft 69 0.0 # orig: 2.4e-11
set param_card smeft 70 0.0 # orig: 7.3e-11
set param_card smeft 71 0.0 # orig: 7.2e-11
set param_card smeft 76 0.0 # orig: 2.9e-11
set param_card smeft 77 0.0 # orig: 2.5e-11
</weight>
<weight id='ctGRe_1p_cQj18_1p_cQj38_0p_cQj11_0p_cjj31_0p_ctu8_0p_ctd8_0p_ctj8_0p_cQu8_0p_cQd8_0p_ctu1_0p_ctd1_0p_ctj1_0p_cQu1_0p_cQd1_0p'>set param_card smeft 15 1.0 # orig: 1e-11
set param_card smeft 38 0.0 # orig: 7.1e-11
set param_card smeft 40 0.0 # orig: 1.7e-11
set param_card smeft 41 1.0 # orig: 1.5e-11
set param_card smeft 43 0.0 # orig: 1.6e-11
set param_card smeft 49 0.0 # orig: 2.6e-11
set param_card smeft 58 0.0 # orig: 2.7e-11
set param_card smeft 62 0.0 # orig: 2.2e-11
set param_card smeft 67 0.0 # orig: 2.8e-11
set param_card smeft 69 0.0 # orig: 2.4e-11
set param_card smeft 70 0.0 # orig: 7.3e-11
set param_card smeft 71 0.0 # orig: 7.2e-11
set param_card smeft 76 0.0 # orig: 2.9e-11
set param_card smeft 77 0.0 # orig: 2.5e-11
</weight>
<weight id='ctGRe_1p_cQj18_0p_cQj38_1p_cQj11_0p_cjj31_0p_ctu8_0p_ctd8_0p_ctj8_0p_cQu8_0p_cQd8_0p_ctu1_0p_ctd1_0p_ctj1_0p_cQu1_0p_cQd1_0p'>set param_card smeft 15 1.0 # orig: 1e-11
set param_card smeft 38 0.0 # orig: 7.1e-11
set param_card smeft 40 0.0 # orig: 1.7e-11
set param_card smeft 41 0.0 # orig: 1.5e-11
set param_card smeft 43 1.0 # orig: 1.6e-11
set param_card smeft 49 0.0 # orig: 2.6e-11
set param_card smeft 58 0.0 # orig: 2.7e-11
set param_card smeft 62 0.0 # orig: 2.2e-11
set param_card smeft 67 0.0 # orig: 2.8e-11
set param_card smeft 69 0.0 # orig: 2.4e-11
set param_card smeft 70 0.0 # orig: 7.3e-11
set param_card smeft 71 0.0 # orig: 7.2e-11
set param_card smeft 76 0.0 # orig: 2.9e-11
set param_card smeft 77 0.0 # orig: 2.5e-11
</weight>
<weight id='ctGRe_1p_cQj18_0p_cQj38_0p_cQj11_1p_cjj31_0p_ctu8_0p_ctd8_0p_ctj8_0p_cQu8_0p_cQd8_0p_ctu1_0p_ctd1_0p_ctj1_0p_cQu1_0p_cQd1_0p'>set param_card smeft 15 1.0 # orig: 1e-11
set param_card smeft 38 0.0 # orig: 7.1e-11
set param_card smeft 40 1.0 # orig: 1.7e-11
set param_card smeft 41 0.0 # orig: 1.5e-11
set param_card smeft 43 0.0 # orig: 1.6e-11
set param_card smeft 49 0.0 # orig: 2.6e-11
set param_card smeft 58 0.0 # orig: 2.7e-11
set param_card smeft 62 0.0 # orig: 2.2e-11
set param_card smeft 67 0.0 # orig: 2.8e-11
set param_card smeft 69 0.0 # orig: 2.4e-11
set param_card smeft 70 0.0 # orig: 7.3e-11
set param_card smeft 71 0.0 # orig: 7.2e-11
set param_card smeft 76 0.0 # orig: 2.9e-11
set param_card smeft 77 0.0 # orig: 2.5e-11
</weight>
<weight id='ctGRe_1p_cQj18_0p_cQj38_0p_cQj11_0p_cjj31_1p_ctu8_0p_ctd8_0p_ctj8_0p_cQu8_0p_cQd8_0p_ctu1_0p_ctd1_0p_ctj1_0p_cQu1_0p_cQd1_0p'>set param_card smeft 15 1.0 # orig: 1e-11
set param_card smeft 38 1.0 # orig: 7.1e-11
set param_card smeft 40 0.0 # orig: 1.7e-11
set param_card smeft 41 0.0 # orig: 1.5e-11
set param_card smeft 43 0.0 # orig: 1.6e-11
set param_card smeft 49 0.0 # orig: 2.6e-11
set param_card smeft 58 0.0 # orig: 2.7e-11
set param_card smeft 62 0.0 # orig: 2.2e-11
set param_card smeft 67 0.0 # orig: 2.8e-11
set param_card smeft 69 0.0 # orig: 2.4e-11
set param_card smeft 70 0.0 # orig: 7.3e-11
set param_card smeft 71 0.0 # orig: 7.2e-11
set param_card smeft 76 0.0 # orig: 2.9e-11
set param_card smeft 77 0.0 # orig: 2.5e-11
</weight>
<weight id='ctGRe_1p_cQj18_0p_cQj38_0p_cQj11_0p_cjj31_0p_ctu8_1p_ctd8_0p_ctj8_0p_cQu8_0p_cQd8_0p_ctu1_0p_ctd1_0p_ctj1_0p_cQu1_0p_cQd1_0p'>set param_card smeft 15 1.0 # orig: 1e-11
set param_card smeft 38 0.0 # orig: 7.1e-11
set param_card smeft 40 0.0 # orig: 1.7e-11
set param_card smeft 41 0.0 # orig: 1.5e-11
set param_card smeft 43 0.0 # orig: 1.6e-11
set param_card smeft 49 0.0 # orig: 2.6e-11
set param_card smeft 58 0.0 # orig: 2.7e-11
set param_card smeft 62 0.0 # orig: 2.2e-11
set param_card smeft 67 0.0 # orig: 2.8e-11
set param_card smeft 69 0.0 # orig: 2.4e-11
set param_card smeft 70 0.0 # orig: 7.3e-11
set param_card smeft 71 0.0 # orig: 7.2e-11
set param_card smeft 76 0.0 # orig: 2.9e-11
set param_card smeft 77 0.0 # orig: 2.5e-11
</weight>
<weight id='ctGRe_1p_cQj18_0p_cQj38_0p_cQj11_0p_cjj31_0p_ctu8_0p_ctd8_1p_ctj8_0p_cQu8_0p_cQd8_0p_ctu1_0p_ctd1_0p_ctj1_0p_cQu1_0p_cQd1_0p'>set param_card smeft 15 1.0 # orig: 1e-11
set param_card smeft 38 0.0 # orig: 7.1e-11
set param_card smeft 40 0.0 # orig: 1.7e-11
set param_card smeft 41 0.0 # orig: 1.5e-11
set param_card smeft 43 0.0 # orig: 1.6e-11
set param_card smeft 49 0.0 # orig: 2.6e-11
set param_card smeft 58 0.0 # orig: 2.7e-11
set param_card smeft 62 1.0 # orig: 2.2e-11
set param_card smeft 67 0.0 # orig: 2.8e-11
set param_card smeft 69 0.0 # orig: 2.4e-11
set param_card smeft 70 0.0 # orig: 7.3e-11
set param_card smeft 71 0.0 # orig: 7.2e-11
set param_card smeft 76 0.0 # orig: 2.9e-11
set param_card smeft 77 0.0 # orig: 2.5e-11
</weight>
<weight id='ctGRe_1p_cQj18_0p_cQj38_0p_cQj11_0p_cjj31_0p_ctu8_0p_ctd8_0p_ctj8_1p_cQu8_0p_cQd8_0p_ctu1_0p_ctd1_0p_ctj1_0p_cQu1_0p_cQd1_0p'>set param_card smeft 15 1.0 # orig: 1e-11
set param_card smeft 38 0.0 # orig: 7.1e-11
set param_card smeft 40 0.0 # orig: 1.7e-11
set param_card smeft 41 0.0 # orig: 1.5e-11
set param_card smeft 43 0.0 # orig: 1.6e-11
set param_card smeft 49 0.0 # orig: 2.6e-11
set param_card smeft 58 0.0 # orig: 2.7e-11
set param_card smeft 62 0.0 # orig: 2.2e-11
set param_card smeft 67 0.0 # orig: 2.8e-11
set param_card smeft 69 0.0 # orig: 2.4e-11
set param_card smeft 70 0.0 # orig: 7.3e-11
set param_card smeft 71 1.0 # orig: 7.2e-11
set param_card smeft 76 0.0 # orig: 2.9e-11
set param_card smeft 77 0.0 # orig: 2.5e-11
</weight>
<weight id='ctGRe_1p_cQj18_0p_cQj38_0p_cQj11_0p_cjj31_0p_ctu8_0p_ctd8_0p_ctj8_0p_cQu8_1p_cQd8_0p_ctu1_0p_ctd1_0p_ctj1_0p_cQu1_0p_cQd1_0p'>set param_card smeft 15 1.0 # orig: 1e-11
set param_card smeft 38 0.0 # orig: 7.1e-11
set param_card smeft 40 0.0 # orig: 1.7e-11
set param_card smeft 41 0.0 # orig: 1.5e-11
set param_card smeft 43 0.0 # orig: 1.6e-11
set param_card smeft 49 0.0 # orig: 2.6e-11
set param_card smeft 58 0.0 # orig: 2.7e-11
set param_card smeft 62 0.0 # orig: 2.2e-11
set param_card smeft 67 0.0 # orig: 2.8e-11
set param_card smeft 69 1.0 # orig: 2.4e-11
set param_card smeft 70 0.0 # orig: 7.3e-11
set param_card smeft 71 0.0 # orig: 7.2e-11
set param_card smeft 76 0.0 # orig: 2.9e-11
set param_card smeft 77 0.0 # orig: 2.5e-11
</weight>
<weight id='ctGRe_1p_cQj18_0p_cQj38_0p_cQj11_0p_cjj31_0p_ctu8_0p_ctd8_0p_ctj8_0p_cQu8_0p_cQd8_1p_ctu1_0p_ctd1_0p_ctj1_0p_cQu1_0p_cQd1_0p'>set param_card smeft 15 1.0 # orig: 1e-11
set param_card smeft 38 0.0 # orig: 7.1e-11
set param_card smeft 40 0.0 # orig: 1.7e-11
set param_card smeft 41 0.0 # orig: 1.5e-11
set param_card smeft 43 0.0 # orig: 1.6e-11
set param_card smeft 49 0.0 # orig: 2.6e-11
set param_card smeft 58 0.0 # orig: 2.7e-11
set param_card smeft 62 0.0 # orig: 2.2e-11
set param_card smeft 67 0.0 # orig: 2.8e-11
set param_card smeft 69 0.0 # orig: 2.4e-11
set param_card smeft 70 0.0 # orig: 7.3e-11
set param_card smeft 71 0.0 # orig: 7.2e-11
set param_card smeft 76 0.0 # orig: 2.9e-11
set param_card smeft 77 1.0 # orig: 2.5e-11
</weight>
<weight id='ctGRe_1p_cQj18_0p_cQj38_0p_cQj11_0p_cjj31_0p_ctu8_0p_ctd8_0p_ctj8_0p_cQu8_0p_cQd8_0p_ctu1_1p_ctd1_0p_ctj1_0p_cQu1_0p_cQd1_0p'>set param_card smeft 15 1.0 # orig: 1e-11
set param_card smeft 38 0.0 # orig: 7.1e-11
set param_card smeft 40 0.0 # orig: 1.7e-11
set param_card smeft 41 0.0 # orig: 1.5e-11
set param_card smeft 43 0.0 # orig: 1.6e-11
set param_card smeft 49 1.0 # orig: 2.6e-11
set param_card smeft 58 0.0 # orig: 2.7e-11
set param_card smeft 62 0.0 # orig: 2.2e-11
set param_card smeft 67 0.0 # orig: 2.8e-11
set param_card smeft 69 0.0 # orig: 2.4e-11
set param_card smeft 70 0.0 # orig: 7.3e-11
set param_card smeft 71 0.0 # orig: 7.2e-11
set param_card smeft 76 0.0 # orig: 2.9e-11
set param_card smeft 77 0.0 # orig: 2.5e-11
</weight>
<weight id='ctGRe_1p_cQj18_0p_cQj38_0p_cQj11_0p_cjj31_0p_ctu8_0p_ctd8_0p_ctj8_0p_cQu8_0p_cQd8_0p_ctu1_0p_ctd1_1p_ctj1_0p_cQu1_0p_cQd1_0p'>set param_card smeft 15 1.0 # orig: 1e-11
set param_card smeft 38 0.0 # orig: 7.1e-11
set param_card smeft 40 0.0 # orig: 1.7e-11
set param_card smeft 41 0.0 # orig: 1.5e-11
set param_card smeft 43 0.0 # orig: 1.6e-11
set param_card smeft 49 0.0 # orig: 2.6e-11
set param_card smeft 58 1.0 # orig: 2.7e-11
set param_card smeft 62 0.0 # orig: 2.2e-11
set param_card smeft 67 0.0 # orig: 2.8e-11
set param_card smeft 69 0.0 # orig: 2.4e-11
set param_card smeft 70 0.0 # orig: 7.3e-11
set param_card smeft 71 0.0 # orig: 7.2e-11
set param_card smeft 76 0.0 # orig: 2.9e-11
set param_card smeft 77 0.0 # orig: 2.5e-11
</weight>
<weight id='ctGRe_1p_cQj18_0p_cQj38_0p_cQj11_0p_cjj31_0p_ctu8_0p_ctd8_0p_ctj8_0p_cQu8_0p_cQd8_0p_ctu1_0p_ctd1_0p_ctj1_1p_cQu1_0p_cQd1_0p'>set param_card smeft 15 1.0 # orig: 1e-11
set param_card smeft 38 0.0 # orig: 7.1e-11
set param_card smeft 40 0.0 # orig: 1.7e-11
set param_card smeft 41 0.0 # orig: 1.5e-11
set param_card smeft 43 0.0 # orig: 1.6e-11
set param_card smeft 49 0.0 # orig: 2.6e-11
set param_card smeft 58 0.0 # orig: 2.7e-11
set param_card smeft 62 0.0 # orig: 2.2e-11
set param_card smeft 67 0.0 # orig: 2.8e-11
set param_card smeft 69 0.0 # orig: 2.4e-11
set param_card smeft 70 1.0 # orig: 7.3e-11
set param_card smeft 71 0.0 # orig: 7.2e-11
set param_card smeft 76 0.0 # orig: 2.9e-11
set param_card smeft 77 0.0 # orig: 2.5e-11
</weight>
<weight id='ctGRe_1p_cQj18_0p_cQj38_0p_cQj11_0p_cjj31_0p_ctu8_0p_ctd8_0p_ctj8_0p_cQu8_0p_cQd8_0p_ctu1_0p_ctd1_0p_ctj1_0p_cQu1_1p_cQd1_0p'>set param_card smeft 15 1.0 # orig: 1e-11
set param_card smeft 38 0.0 # orig: 7.1e-11
set param_card smeft 40 0.0 # orig: 1.7e-11
set param_card smeft 41 0.0 # orig: 1.5e-11
set param_card smeft 43 0.0 # orig: 1.6e-11
set param_card smeft 49 0.0 # orig: 2.6e-11
set param_card smeft 58 0.0 # orig: 2.7e-11
set param_card smeft 62 0.0 # orig: 2.2e-11
set param_card smeft 67 1.0 # orig: 2.8e-11
set param_card smeft 69 0.0 # orig: 2.4e-11
set param_card smeft 70 0.0 # orig: 7.3e-11
set param_card smeft 71 0.0 # orig: 7.2e-11
set param_card smeft 76 0.0 # orig: 2.9e-11
set param_card smeft 77 0.0 # orig: 2.5e-11
</weight>
<weight id='ctGRe_1p_cQj18_0p_cQj38_0p_cQj11_0p_cjj31_0p_ctu8_0p_ctd8_0p_ctj8_0p_cQu8_0p_cQd8_0p_ctu1_0p_ctd1_0p_ctj1_0p_cQu1_0p_cQd1_1p'>set param_card smeft 15 1.0 # orig: 1e-11
set param_card smeft 38 0.0 # orig: 7.1e-11
set param_card smeft 40 0.0 # orig: 1.7e-11
set param_card smeft 41 0.0 # orig: 1.5e-11
set param_card smeft 43 0.0 # orig: 1.6e-11
set param_card smeft 49 0.0 # orig: 2.6e-11
set param_card smeft 58 0.0 # orig: 2.7e-11
set param_card smeft 62 0.0 # orig: 2.2e-11
set param_card smeft 67 0.0 # orig: 2.8e-11
set param_card smeft 69 0.0 # orig: 2.4e-11
set param_card smeft 70 0.0 # orig: 7.3e-11
set param_card smeft 71 0.0 # orig: 7.2e-11
set param_card smeft 76 1.0 # orig: 2.9e-11
set param_card smeft 77 0.0 # orig: 2.5e-11
</weight>
<weight id='ctGRe_0p_cQj18_2p_cQj38_0p_cQj11_0p_cjj31_0p_ctu8_0p_ctd8_0p_ctj8_0p_cQu8_0p_cQd8_0p_ctu1_0p_ctd1_0p_ctj1_0p_cQu1_0p_cQd1_0p'>set param_card smeft 15 0.0 # orig: 1e-11
set param_card smeft 38 0.0 # orig: 7.1e-11
set param_card smeft 40 0.0 # orig: 1.7e-11
set param_card smeft 41 2.0 # orig: 1.5e-11
set param_card smeft 43 0.0 # orig: 1.6e-11
set param_card smeft 49 0.0 # orig: 2.6e-11
set param_card smeft 58 0.0 # orig: 2.7e-11
set param_card smeft 62 0.0 # orig: 2.2e-11
set param_card smeft 67 0.0 # orig: 2.8e-11
set param_card smeft 69 0.0 # orig: 2.4e-11
set param_card smeft 70 0.0 # orig: 7.3e-11
set param_card smeft 71 0.0 # orig: 7.2e-11
set param_card smeft 76 0.0 # orig: 2.9e-11
set param_card smeft 77 0.0 # orig: 2.5e-11
</weight>
<weight id='ctGRe_0p_cQj18_1p_cQj38_1p_cQj11_0p_cjj31_0p_ctu8_0p_ctd8_0p_ctj8_0p_cQu8_0p_cQd8_0p_ctu1_0p_ctd1_0p_ctj1_0p_cQu1_0p_cQd1_0p'>set param_card smeft 15 0.0 # orig: 1e-11
set param_card smeft 38 0.0 # orig: 7.1e-11
set param_card smeft 40 0.0 # orig: 1.7e-11
set param_card smeft 41 1.0 # orig: 1.5e-11
set param_card smeft 43 1.0 # orig: 1.6e-11
set param_card smeft 49 0.0 # orig: 2.6e-11
set param_card smeft 58 0.0 # orig: 2.7e-11
set param_card smeft 62 0.0 # orig: 2.2e-11
set param_card smeft 67 0.0 # orig: 2.8e-11
set param_card smeft 69 0.0 # orig: 2.4e-11
set param_card smeft 70 0.0 # orig: 7.3e-11
set param_card smeft 71 0.0 # orig: 7.2e-11
set param_card smeft 76 0.0 # orig: 2.9e-11
set param_card smeft 77 0.0 # orig: 2.5e-11
</weight>
<weight id='ctGRe_0p_cQj18_1p_cQj38_0p_cQj11_1p_cjj31_0p_ctu8_0p_ctd8_0p_ctj8_0p_cQu8_0p_cQd8_0p_ctu1_0p_ctd1_0p_ctj1_0p_cQu1_0p_cQd1_0p'>set param_card smeft 15 0.0 # orig: 1e-11
set param_card smeft 38 0.0 # orig: 7.1e-11
set param_card smeft 40 1.0 # orig: 1.7e-11
set param_card smeft 41 1.0 # orig: 1.5e-11
set param_card smeft 43 0.0 # orig: 1.6e-11
set param_card smeft 49 0.0 # orig: 2.6e-11
set param_card smeft 58 0.0 # orig: 2.7e-11
set param_card smeft 62 0.0 # orig: 2.2e-11
set param_card smeft 67 0.0 # orig: 2.8e-11
set param_card smeft 69 0.0 # orig: 2.4e-11
set param_card smeft 70 0.0 # orig: 7.3e-11
set param_card smeft 71 0.0 # orig: 7.2e-11
set param_card smeft 76 0.0 # orig: 2.9e-11
set param_card smeft 77 0.0 # orig: 2.5e-11
</weight>
<weight id='ctGRe_0p_cQj18_1p_cQj38_0p_cQj11_0p_cjj31_1p_ctu8_0p_ctd8_0p_ctj8_0p_cQu8_0p_cQd8_0p_ctu1_0p_ctd1_0p_ctj1_0p_cQu1_0p_cQd1_0p'>set param_card smeft 15 0.0 # orig: 1e-11
set param_card smeft 38 1.0 # orig: 7.1e-11
set param_card smeft 40 0.0 # orig: 1.7e-11
set param_card smeft 41 1.0 # orig: 1.5e-11
set param_card smeft 43 0.0 # orig: 1.6e-11
set param_card smeft 49 0.0 # orig: 2.6e-11
set param_card smeft 58 0.0 # orig: 2.7e-11
set param_card smeft 62 0.0 # orig: 2.2e-11
set param_card smeft 67 0.0 # orig: 2.8e-11
set param_card smeft 69 0.0 # orig: 2.4e-11
set param_card smeft 70 0.0 # orig: 7.3e-11
set param_card smeft 71 0.0 # orig: 7.2e-11
set param_card smeft 76 0.0 # orig: 2.9e-11
set param_card smeft 77 0.0 # orig: 2.5e-11
</weight>
<weight id='ctGRe_0p_cQj18_1p_cQj38_0p_cQj11_0p_cjj31_0p_ctu8_1p_ctd8_0p_ctj8_0p_cQu8_0p_cQd8_0p_ctu1_0p_ctd1_0p_ctj1_0p_cQu1_0p_cQd1_0p'>set param_card smeft 15 0.0 # orig: 1e-11
set param_card smeft 38 0.0 # orig: 7.1e-11
set param_card smeft 40 0.0 # orig: 1.7e-11
set param_card smeft 41 1.0 # orig: 1.5e-11
set param_card smeft 43 0.0 # orig: 1.6e-11
set param_card smeft 49 0.0 # orig: 2.6e-11
set param_card smeft 58 0.0 # orig: 2.7e-11
set param_card smeft 62 0.0 # orig: 2.2e-11
set param_card smeft 67 0.0 # orig: 2.8e-11
set param_card smeft 69 0.0 # orig: 2.4e-11
set param_card smeft 70 0.0 # orig: 7.3e-11
set param_card smeft 71 0.0 # orig: 7.2e-11
set param_card smeft 76 0.0 # orig: 2.9e-11
set param_card smeft 77 0.0 # orig: 2.5e-11
</weight>
<weight id='ctGRe_0p_cQj18_1p_cQj38_0p_cQj11_0p_cjj31_0p_ctu8_0p_ctd8_1p_ctj8_0p_cQu8_0p_cQd8_0p_ctu1_0p_ctd1_0p_ctj1_0p_cQu1_0p_cQd1_0p'>set param_card smeft 15 0.0 # orig: 1e-11
set param_card smeft 38 0.0 # orig: 7.1e-11
set param_card smeft 40 0.0 # orig: 1.7e-11
set param_card smeft 41 1.0 # orig: 1.5e-11
set param_card smeft 43 0.0 # orig: 1.6e-11
set param_card smeft 49 0.0 # orig: 2.6e-11
set param_card smeft 58 0.0 # orig: 2.7e-11
set param_card smeft 62 1.0 # orig: 2.2e-11
set param_card smeft 67 0.0 # orig: 2.8e-11
set param_card smeft 69 0.0 # orig: 2.4e-11
set param_card smeft 70 0.0 # orig: 7.3e-11
set param_card smeft 71 0.0 # orig: 7.2e-11
set param_card smeft 76 0.0 # orig: 2.9e-11
set param_card smeft 77 0.0 # orig: 2.5e-11
</weight>
<weight id='ctGRe_0p_cQj18_1p_cQj38_0p_cQj11_0p_cjj31_0p_ctu8_0p_ctd8_0p_ctj8_1p_cQu8_0p_cQd8_0p_ctu1_0p_ctd1_0p_ctj1_0p_cQu1_0p_cQd1_0p'>set param_card smeft 15 0.0 # orig: 1e-11
set param_card smeft 38 0.0 # orig: 7.1e-11
set param_card smeft 40 0.0 # orig: 1.7e-11
set param_card smeft 41 1.0 # orig: 1.5e-11
set param_card smeft 43 0.0 # orig: 1.6e-11
set param_card smeft 49 0.0 # orig: 2.6e-11
set param_card smeft 58 0.0 # orig: 2.7e-11
set param_card smeft 62 0.0 # orig: 2.2e-11
set param_card smeft 67 0.0 # orig: 2.8e-11
set param_card smeft 69 0.0 # orig: 2.4e-11
set param_card smeft 70 0.0 # orig: 7.3e-11
set param_card smeft 71 1.0 # orig: 7.2e-11
set param_card smeft 76 0.0 # orig: 2.9e-11
set param_card smeft 77 0.0 # orig: 2.5e-11
</weight>
<weight id='ctGRe_0p_cQj18_1p_cQj38_0p_cQj11_0p_cjj31_0p_ctu8_0p_ctd8_0p_ctj8_0p_cQu8_1p_cQd8_0p_ctu1_0p_ctd1_0p_ctj1_0p_cQu1_0p_cQd1_0p'>set param_card smeft 15 0.0 # orig: 1e-11
set param_card smeft 38 0.0 # orig: 7.1e-11
set param_card smeft 40 0.0 # orig: 1.7e-11
set param_card smeft 41 1.0 # orig: 1.5e-11
set param_card smeft 43 0.0 # orig: 1.6e-11
set param_card smeft 49 0.0 # orig: 2.6e-11
set param_card smeft 58 0.0 # orig: 2.7e-11
set param_card smeft 62 0.0 # orig: 2.2e-11
set param_card smeft 67 0.0 # orig: 2.8e-11
set param_card smeft 69 1.0 # orig: 2.4e-11
set param_card smeft 70 0.0 # orig: 7.3e-11
set param_card smeft 71 0.0 # orig: 7.2e-11
set param_card smeft 76 0.0 # orig: 2.9e-11
set param_card smeft 77 0.0 # orig: 2.5e-11
</weight>
<weight id='ctGRe_0p_cQj18_1p_cQj38_0p_cQj11_0p_cjj31_0p_ctu8_0p_ctd8_0p_ctj8_0p_cQu8_0p_cQd8_1p_ctu1_0p_ctd1_0p_ctj1_0p_cQu1_0p_cQd1_0p'>set param_card smeft 15 0.0 # orig: 1e-11
set param_card smeft 38 0.0 # orig: 7.1e-11
set param_card smeft 40 0.0 # orig: 1.7e-11
set param_card smeft 41 1.0 # orig: 1.5e-11
set param_card smeft 43 0.0 # orig: 1.6e-11
set param_card smeft 49 0.0 # orig: 2.6e-11
set param_card smeft 58 0.0 # orig: 2.7e-11
set param_card smeft 62 0.0 # orig: 2.2e-11
set param_card smeft 67 0.0 # orig: 2.8e-11
set param_card smeft 69 0.0 # orig: 2.4e-11
set param_card smeft 70 0.0 # orig: 7.3e-11
set param_card smeft 71 0.0 # orig: 7.2e-11
set param_card smeft 76 0.0 # orig: 2.9e-11
set param_card smeft 77 1.0 # orig: 2.5e-11
</weight>
<weight id='ctGRe_0p_cQj18_1p_cQj38_0p_cQj11_0p_cjj31_0p_ctu8_0p_ctd8_0p_ctj8_0p_cQu8_0p_cQd8_0p_ctu1_1p_ctd1_0p_ctj1_0p_cQu1_0p_cQd1_0p'>set param_card smeft 15 0.0 # orig: 1e-11
set param_card smeft 38 0.0 # orig: 7.1e-11
set param_card smeft 40 0.0 # orig: 1.7e-11
set param_card smeft 41 1.0 # orig: 1.5e-11
set param_card smeft 43 0.0 # orig: 1.6e-11
set param_card smeft 49 1.0 # orig: 2.6e-11
set param_card smeft 58 0.0 # orig: 2.7e-11
set param_card smeft 62 0.0 # orig: 2.2e-11
set param_card smeft 67 0.0 # orig: 2.8e-11
set param_card smeft 69 0.0 # orig: 2.4e-11
set param_card smeft 70 0.0 # orig: 7.3e-11
set param_card smeft 71 0.0 # orig: 7.2e-11
set param_card smeft 76 0.0 # orig: 2.9e-11
set param_card smeft 77 0.0 # orig: 2.5e-11
</weight>
<weight id='ctGRe_0p_cQj18_1p_cQj38_0p_cQj11_0p_cjj31_0p_ctu8_0p_ctd8_0p_ctj8_0p_cQu8_0p_cQd8_0p_ctu1_0p_ctd1_1p_ctj1_0p_cQu1_0p_cQd1_0p'>set param_card smeft 15 0.0 # orig: 1e-11
set param_card smeft 38 0.0 # orig: 7.1e-11
set param_card smeft 40 0.0 # orig: 1.7e-11
set param_card smeft 41 1.0 # orig: 1.5e-11
set param_card smeft 43 0.0 # orig: 1.6e-11
set param_card smeft 49 0.0 # orig: 2.6e-11
set param_card smeft 58 1.0 # orig: 2.7e-11
set param_card smeft 62 0.0 # orig: 2.2e-11
set param_card smeft 67 0.0 # orig: 2.8e-11
set param_card smeft 69 0.0 # orig: 2.4e-11
set param_card smeft 70 0.0 # orig: 7.3e-11
set param_card smeft 71 0.0 # orig: 7.2e-11
set param_card smeft 76 0.0 # orig: 2.9e-11
set param_card smeft 77 0.0 # orig: 2.5e-11
</weight>
<weight id='ctGRe_0p_cQj18_1p_cQj38_0p_cQj11_0p_cjj31_0p_ctu8_0p_ctd8_0p_ctj8_0p_cQu8_0p_cQd8_0p_ctu1_0p_ctd1_0p_ctj1_1p_cQu1_0p_cQd1_0p'>set param_card smeft 15 0.0 # orig: 1e-11
set param_card smeft 38 0.0 # orig: 7.1e-11
set param_card smeft 40 0.0 # orig: 1.7e-11
set param_card smeft 41 1.0 # orig: 1.5e-11
set param_card smeft 43 0.0 # orig: 1.6e-11
set param_card smeft 49 0.0 # orig: 2.6e-11
set param_card smeft 58 0.0 # orig: 2.7e-11
set param_card smeft 62 0.0 # orig: 2.2e-11
set param_card smeft 67 0.0 # orig: 2.8e-11
set param_card smeft 69 0.0 # orig: 2.4e-11
set param_card smeft 70 1.0 # orig: 7.3e-11
set param_card smeft 71 0.0 # orig: 7.2e-11
set param_card smeft 76 0.0 # orig: 2.9e-11
set param_card smeft 77 0.0 # orig: 2.5e-11
</weight>
<weight id='ctGRe_0p_cQj18_1p_cQj38_0p_cQj11_0p_cjj31_0p_ctu8_0p_ctd8_0p_ctj8_0p_cQu8_0p_cQd8_0p_ctu1_0p_ctd1_0p_ctj1_0p_cQu1_1p_cQd1_0p'>set param_card smeft 15 0.0 # orig: 1e-11
set param_card smeft 38 0.0 # orig: 7.1e-11
set param_card smeft 40 0.0 # orig: 1.7e-11
set param_card smeft 41 1.0 # orig: 1.5e-11
set param_card smeft 43 0.0 # orig: 1.6e-11
set param_card smeft 49 0.0 # orig: 2.6e-11
set param_card smeft 58 0.0 # orig: 2.7e-11
set param_card smeft 62 0.0 # orig: 2.2e-11
set param_card smeft 67 1.0 # orig: 2.8e-11
set param_card smeft 69 0.0 # orig: 2.4e-11
set param_card smeft 70 0.0 # orig: 7.3e-11
set param_card smeft 71 0.0 # orig: 7.2e-11
set param_card smeft 76 0.0 # orig: 2.9e-11
set param_card smeft 77 0.0 # orig: 2.5e-11
</weight>
<weight id='ctGRe_0p_cQj18_1p_cQj38_0p_cQj11_0p_cjj31_0p_ctu8_0p_ctd8_0p_ctj8_0p_cQu8_0p_cQd8_0p_ctu1_0p_ctd1_0p_ctj1_0p_cQu1_0p_cQd1_1p'>set param_card smeft 15 0.0 # orig: 1e-11
set param_card smeft 38 0.0 # orig: 7.1e-11
set param_card smeft 40 0.0 # orig: 1.7e-11
set param_card smeft 41 1.0 # orig: 1.5e-11
set param_card smeft 43 0.0 # orig: 1.6e-11
set param_card smeft 49 0.0 # orig: 2.6e-11
set param_card smeft 58 0.0 # orig: 2.7e-11
set param_card smeft 62 0.0 # orig: 2.2e-11
set param_card smeft 67 0.0 # orig: 2.8e-11
set param_card smeft 69 0.0 # orig: 2.4e-11
set param_card smeft 70 0.0 # orig: 7.3e-11
set param_card smeft 71 0.0 # orig: 7.2e-11
set param_card smeft 76 1.0 # orig: 2.9e-11
set param_card smeft 77 0.0 # orig: 2.5e-11
</weight>
<weight id='ctGRe_0p_cQj18_0p_cQj38_2p_cQj11_0p_cjj31_0p_ctu8_0p_ctd8_0p_ctj8_0p_cQu8_0p_cQd8_0p_ctu1_0p_ctd1_0p_ctj1_0p_cQu1_0p_cQd1_0p'>set param_card smeft 15 0.0 # orig: 1e-11
set param_card smeft 38 0.0 # orig: 7.1e-11
set param_card smeft 40 0.0 # orig: 1.7e-11
set param_card smeft 41 0.0 # orig: 1.5e-11
set param_card smeft 43 2.0 # orig: 1.6e-11
set param_card smeft 49 0.0 # orig: 2.6e-11
set param_card smeft 58 0.0 # orig: 2.7e-11
set param_card smeft 62 0.0 # orig: 2.2e-11
set param_card smeft 67 0.0 # orig: 2.8e-11
set param_card smeft 69 0.0 # orig: 2.4e-11
set param_card smeft 70 0.0 # orig: 7.3e-11
set param_card smeft 71 0.0 # orig: 7.2e-11
set param_card smeft 76 0.0 # orig: 2.9e-11
set param_card smeft 77 0.0 # orig: 2.5e-11
</weight>
<weight id='ctGRe_0p_cQj18_0p_cQj38_1p_cQj11_1p_cjj31_0p_ctu8_0p_ctd8_0p_ctj8_0p_cQu8_0p_cQd8_0p_ctu1_0p_ctd1_0p_ctj1_0p_cQu1_0p_cQd1_0p'>set param_card smeft 15 0.0 # orig: 1e-11
set param_card smeft 38 0.0 # orig: 7.1e-11
set param_card smeft 40 1.0 # orig: 1.7e-11
set param_card smeft 41 0.0 # orig: 1.5e-11
set param_card smeft 43 1.0 # orig: 1.6e-11
set param_card smeft 49 0.0 # orig: 2.6e-11
set param_card smeft 58 0.0 # orig: 2.7e-11
set param_card smeft 62 0.0 # orig: 2.2e-11
set param_card smeft 67 0.0 # orig: 2.8e-11
set param_card smeft 69 0.0 # orig: 2.4e-11
set param_card smeft 70 0.0 # orig: 7.3e-11
set param_card smeft 71 0.0 # orig: 7.2e-11
set param_card smeft 76 0.0 # orig: 2.9e-11
set param_card smeft 77 0.0 # orig: 2.5e-11
</weight>
<weight id='ctGRe_0p_cQj18_0p_cQj38_1p_cQj11_0p_cjj31_1p_ctu8_0p_ctd8_0p_ctj8_0p_cQu8_0p_cQd8_0p_ctu1_0p_ctd1_0p_ctj1_0p_cQu1_0p_cQd1_0p'>set param_card smeft 15 0.0 # orig: 1e-11
set param_card smeft 38 1.0 # orig: 7.1e-11
set param_card smeft 40 0.0 # orig: 1.7e-11
set param_card smeft 41 0.0 # orig: 1.5e-11
set param_card smeft 43 1.0 # orig: 1.6e-11
set param_card smeft 49 0.0 # orig: 2.6e-11
set param_card smeft 58 0.0 # orig: 2.7e-11
set param_card smeft 62 0.0 # orig: 2.2e-11
set param_card smeft 67 0.0 # orig: 2.8e-11
set param_card smeft 69 0.0 # orig: 2.4e-11
set param_card smeft 70 0.0 # orig: 7.3e-11
set param_card smeft 71 0.0 # orig: 7.2e-11
set param_card smeft 76 0.0 # orig: 2.9e-11
set param_card smeft 77 0.0 # orig: 2.5e-11
</weight>
<weight id='ctGRe_0p_cQj18_0p_cQj38_1p_cQj11_0p_cjj31_0p_ctu8_1p_ctd8_0p_ctj8_0p_cQu8_0p_cQd8_0p_ctu1_0p_ctd1_0p_ctj1_0p_cQu1_0p_cQd1_0p'>set param_card smeft 15 0.0 # orig: 1e-11
set param_card smeft 38 0.0 # orig: 7.1e-11
set param_card smeft 40 0.0 # orig: 1.7e-11
set param_card smeft 41 0.0 # orig: 1.5e-11
set param_card smeft 43 1.0 # orig: 1.6e-11
set param_card smeft 49 0.0 # orig: 2.6e-11
set param_card smeft 58 0.0 # orig: 2.7e-11
set param_card smeft 62 0.0 # orig: 2.2e-11
set param_card smeft 67 0.0 # orig: 2.8e-11
set param_card smeft 69 0.0 # orig: 2.4e-11
set param_card smeft 70 0.0 # orig: 7.3e-11
set param_card smeft 71 0.0 # orig: 7.2e-11
set param_card smeft 76 0.0 # orig: 2.9e-11
set param_card smeft 77 0.0 # orig: 2.5e-11
</weight>
<weight id='ctGRe_0p_cQj18_0p_cQj38_1p_cQj11_0p_cjj31_0p_ctu8_0p_ctd8_1p_ctj8_0p_cQu8_0p_cQd8_0p_ctu1_0p_ctd1_0p_ctj1_0p_cQu1_0p_cQd1_0p'>set param_card smeft 15 0.0 # orig: 1e-11
set param_card smeft 38 0.0 # orig: 7.1e-11
set param_card smeft 40 0.0 # orig: 1.7e-11
set param_card smeft 41 0.0 # orig: 1.5e-11
set param_card smeft 43 1.0 # orig: 1.6e-11
set param_card smeft 49 0.0 # orig: 2.6e-11
set param_card smeft 58 0.0 # orig: 2.7e-11
set param_card smeft 62 1.0 # orig: 2.2e-11
set param_card smeft 67 0.0 # orig: 2.8e-11
set param_card smeft 69 0.0 # orig: 2.4e-11
set param_card smeft 70 0.0 # orig: 7.3e-11
set param_card smeft 71 0.0 # orig: 7.2e-11
set param_card smeft 76 0.0 # orig: 2.9e-11
set param_card smeft 77 0.0 # orig: 2.5e-11
</weight>
<weight id='ctGRe_0p_cQj18_0p_cQj38_1p_cQj11_0p_cjj31_0p_ctu8_0p_ctd8_0p_ctj8_1p_cQu8_0p_cQd8_0p_ctu1_0p_ctd1_0p_ctj1_0p_cQu1_0p_cQd1_0p'>set param_card smeft 15 0.0 # orig: 1e-11
set param_card smeft 38 0.0 # orig: 7.1e-11
set param_card smeft 40 0.0 # orig: 1.7e-11
set param_card smeft 41 0.0 # orig: 1.5e-11
set param_card smeft 43 1.0 # orig: 1.6e-11
set param_card smeft 49 0.0 # orig: 2.6e-11
set param_card smeft 58 0.0 # orig: 2.7e-11
set param_card smeft 62 0.0 # orig: 2.2e-11
set param_card smeft 67 0.0 # orig: 2.8e-11
set param_card smeft 69 0.0 # orig: 2.4e-11
set param_card smeft 70 0.0 # orig: 7.3e-11
set param_card smeft 71 1.0 # orig: 7.2e-11
set param_card smeft 76 0.0 # orig: 2.9e-11
set param_card smeft 77 0.0 # orig: 2.5e-11
</weight>
<weight id='ctGRe_0p_cQj18_0p_cQj38_1p_cQj11_0p_cjj31_0p_ctu8_0p_ctd8_0p_ctj8_0p_cQu8_1p_cQd8_0p_ctu1_0p_ctd1_0p_ctj1_0p_cQu1_0p_cQd1_0p'>set param_card smeft 15 0.0 # orig: 1e-11
set param_card smeft 38 0.0 # orig: 7.1e-11
set param_card smeft 40 0.0 # orig: 1.7e-11
set param_card smeft 41 0.0 # orig: 1.5e-11
set param_card smeft 43 1.0 # orig: 1.6e-11
set param_card smeft 49 0.0 # orig: 2.6e-11
set param_card smeft 58 0.0 # orig: 2.7e-11
set param_card smeft 62 0.0 # orig: 2.2e-11
set param_card smeft 67 0.0 # orig: 2.8e-11
set param_card smeft 69 1.0 # orig: 2.4e-11
set param_card smeft 70 0.0 # orig: 7.3e-11
set param_card smeft 71 0.0 # orig: 7.2e-11
set param_card smeft 76 0.0 # orig: 2.9e-11
set param_card smeft 77 0.0 # orig: 2.5e-11
</weight>
<weight id='ctGRe_0p_cQj18_0p_cQj38_1p_cQj11_0p_cjj31_0p_ctu8_0p_ctd8_0p_ctj8_0p_cQu8_0p_cQd8_1p_ctu1_0p_ctd1_0p_ctj1_0p_cQu1_0p_cQd1_0p'>set param_card smeft 15 0.0 # orig: 1e-11
set param_card smeft 38 0.0 # orig: 7.1e-11
set param_card smeft 40 0.0 # orig: 1.7e-11
set param_card smeft 41 0.0 # orig: 1.5e-11
set param_card smeft 43 1.0 # orig: 1.6e-11
set param_card smeft 49 0.0 # orig: 2.6e-11
set param_card smeft 58 0.0 # orig: 2.7e-11
set param_card smeft 62 0.0 # orig: 2.2e-11
set param_card smeft 67 0.0 # orig: 2.8e-11
set param_card smeft 69 0.0 # orig: 2.4e-11
set param_card smeft 70 0.0 # orig: 7.3e-11
set param_card smeft 71 0.0 # orig: 7.2e-11
set param_card smeft 76 0.0 # orig: 2.9e-11
set param_card smeft 77 1.0 # orig: 2.5e-11
</weight>
<weight id='ctGRe_0p_cQj18_0p_cQj38_1p_cQj11_0p_cjj31_0p_ctu8_0p_ctd8_0p_ctj8_0p_cQu8_0p_cQd8_0p_ctu1_1p_ctd1_0p_ctj1_0p_cQu1_0p_cQd1_0p'>set param_card smeft 15 0.0 # orig: 1e-11
set param_card smeft 38 0.0 # orig: 7.1e-11
set param_card smeft 40 0.0 # orig: 1.7e-11
set param_card smeft 41 0.0 # orig: 1.5e-11
set param_card smeft 43 1.0 # orig: 1.6e-11
set param_card smeft 49 1.0 # orig: 2.6e-11
set param_card smeft 58 0.0 # orig: 2.7e-11
set param_card smeft 62 0.0 # orig: 2.2e-11
set param_card smeft 67 0.0 # orig: 2.8e-11
set param_card smeft 69 0.0 # orig: 2.4e-11
set param_card smeft 70 0.0 # orig: 7.3e-11
set param_card smeft 71 0.0 # orig: 7.2e-11
set param_card smeft 76 0.0 # orig: 2.9e-11
set param_card smeft 77 0.0 # orig: 2.5e-11
</weight>
<weight id='ctGRe_0p_cQj18_0p_cQj38_1p_cQj11_0p_cjj31_0p_ctu8_0p_ctd8_0p_ctj8_0p_cQu8_0p_cQd8_0p_ctu1_0p_ctd1_1p_ctj1_0p_cQu1_0p_cQd1_0p'>set param_card smeft 15 0.0 # orig: 1e-11
set param_card smeft 38 0.0 # orig: 7.1e-11
set param_card smeft 40 0.0 # orig: 1.7e-11
set param_card smeft 41 0.0 # orig: 1.5e-11
set param_card smeft 43 1.0 # orig: 1.6e-11
set param_card smeft 49 0.0 # orig: 2.6e-11
set param_card smeft 58 1.0 # orig: 2.7e-11
set param_card smeft 62 0.0 # orig: 2.2e-11
set param_card smeft 67 0.0 # orig: 2.8e-11
set param_card smeft 69 0.0 # orig: 2.4e-11
set param_card smeft 70 0.0 # orig: 7.3e-11
set param_card smeft 71 0.0 # orig: 7.2e-11
set param_card smeft 76 0.0 # orig: 2.9e-11
set param_card smeft 77 0.0 # orig: 2.5e-11
</weight>
<weight id='ctGRe_0p_cQj18_0p_cQj38_1p_cQj11_0p_cjj31_0p_ctu8_0p_ctd8_0p_ctj8_0p_cQu8_0p_cQd8_0p_ctu1_0p_ctd1_0p_ctj1_1p_cQu1_0p_cQd1_0p'>set param_card smeft 15 0.0 # orig: 1e-11
set param_card smeft 38 0.0 # orig: 7.1e-11
set param_card smeft 40 0.0 # orig: 1.7e-11
set param_card smeft 41 0.0 # orig: 1.5e-11
set param_card smeft 43 1.0 # orig: 1.6e-11
set param_card smeft 49 0.0 # orig: 2.6e-11
set param_card smeft 58 0.0 # orig: 2.7e-11
set param_card smeft 62 0.0 # orig: 2.2e-11
set param_card smeft 67 0.0 # orig: 2.8e-11
set param_card smeft 69 0.0 # orig: 2.4e-11
set param_card smeft 70 1.0 # orig: 7.3e-11
set param_card smeft 71 0.0 # orig: 7.2e-11
set param_card smeft 76 0.0 # orig: 2.9e-11
set param_card smeft 77 0.0 # orig: 2.5e-11
</weight>
<weight id='ctGRe_0p_cQj18_0p_cQj38_1p_cQj11_0p_cjj31_0p_ctu8_0p_ctd8_0p_ctj8_0p_cQu8_0p_cQd8_0p_ctu1_0p_ctd1_0p_ctj1_0p_cQu1_1p_cQd1_0p'>set param_card smeft 15 0.0 # orig: 1e-11
set param_card smeft 38 0.0 # orig: 7.1e-11
set param_card smeft 40 0.0 # orig: 1.7e-11
set param_card smeft 41 0.0 # orig: 1.5e-11
set param_card smeft 43 1.0 # orig: 1.6e-11
set param_card smeft 49 0.0 # orig: 2.6e-11
set param_card smeft 58 0.0 # orig: 2.7e-11
set param_card smeft 62 0.0 # orig: 2.2e-11
set param_card smeft 67 1.0 # orig: 2.8e-11
set param_card smeft 69 0.0 # orig: 2.4e-11
set param_card smeft 70 0.0 # orig: 7.3e-11
set param_card smeft 71 0.0 # orig: 7.2e-11
set param_card smeft 76 0.0 # orig: 2.9e-11
set param_card smeft 77 0.0 # orig: 2.5e-11
</weight>
<weight id='ctGRe_0p_cQj18_0p_cQj38_1p_cQj11_0p_cjj31_0p_ctu8_0p_ctd8_0p_ctj8_0p_cQu8_0p_cQd8_0p_ctu1_0p_ctd1_0p_ctj1_0p_cQu1_0p_cQd1_1p'>set param_card smeft 15 0.0 # orig: 1e-11
set param_card smeft 38 0.0 # orig: 7.1e-11
set param_card smeft 40 0.0 # orig: 1.7e-11
set param_card smeft 41 0.0 # orig: 1.5e-11
set param_card smeft 43 1.0 # orig: 1.6e-11
set param_card smeft 49 0.0 # orig: 2.6e-11
set param_card smeft 58 0.0 # orig: 2.7e-11
set param_card smeft 62 0.0 # orig: 2.2e-11
set param_card smeft 67 0.0 # orig: 2.8e-11
set param_card smeft 69 0.0 # orig: 2.4e-11
set param_card smeft 70 0.0 # orig: 7.3e-11
set param_card smeft 71 0.0 # orig: 7.2e-11
set param_card smeft 76 1.0 # orig: 2.9e-11
set param_card smeft 77 0.0 # orig: 2.5e-11
</weight>
<weight id='ctGRe_0p_cQj18_0p_cQj38_0p_cQj11_2p_cjj31_0p_ctu8_0p_ctd8_0p_ctj8_0p_cQu8_0p_cQd8_0p_ctu1_0p_ctd1_0p_ctj1_0p_cQu1_0p_cQd1_0p'>set param_card smeft 15 0.0 # orig: 1e-11
set param_card smeft 38 0.0 # orig: 7.1e-11
set param_card smeft 40 2.0 # orig: 1.7e-11
set param_card smeft 41 0.0 # orig: 1.5e-11
set param_card smeft 43 0.0 # orig: 1.6e-11
set param_card smeft 49 0.0 # orig: 2.6e-11
set param_card smeft 58 0.0 # orig: 2.7e-11
set param_card smeft 62 0.0 # orig: 2.2e-11
set param_card smeft 67 0.0 # orig: 2.8e-11
set param_card smeft 69 0.0 # orig: 2.4e-11
set param_card smeft 70 0.0 # orig: 7.3e-11
set param_card smeft 71 0.0 # orig: 7.2e-11
set param_card smeft 76 0.0 # orig: 2.9e-11
set param_card smeft 77 0.0 # orig: 2.5e-11
</weight>
<weight id='ctGRe_0p_cQj18_0p_cQj38_0p_cQj11_1p_cjj31_1p_ctu8_0p_ctd8_0p_ctj8_0p_cQu8_0p_cQd8_0p_ctu1_0p_ctd1_0p_ctj1_0p_cQu1_0p_cQd1_0p'>set param_card smeft 15 0.0 # orig: 1e-11
set param_card smeft 38 1.0 # orig: 7.1e-11
set param_card smeft 40 1.0 # orig: 1.7e-11
set param_card smeft 41 0.0 # orig: 1.5e-11
set param_card smeft 43 0.0 # orig: 1.6e-11
set param_card smeft 49 0.0 # orig: 2.6e-11
set param_card smeft 58 0.0 # orig: 2.7e-11
set param_card smeft 62 0.0 # orig: 2.2e-11
set param_card smeft 67 0.0 # orig: 2.8e-11
set param_card smeft 69 0.0 # orig: 2.4e-11
set param_card smeft 70 0.0 # orig: 7.3e-11
set param_card smeft 71 0.0 # orig: 7.2e-11
set param_card smeft 76 0.0 # orig: 2.9e-11
set param_card smeft 77 0.0 # orig: 2.5e-11
</weight>
<weight id='ctGRe_0p_cQj18_0p_cQj38_0p_cQj11_1p_cjj31_0p_ctu8_1p_ctd8_0p_ctj8_0p_cQu8_0p_cQd8_0p_ctu1_0p_ctd1_0p_ctj1_0p_cQu1_0p_cQd1_0p'>set param_card smeft 15 0.0 # orig: 1e-11
set param_card smeft 38 0.0 # orig: 7.1e-11
set param_card smeft 40 1.0 # orig: 1.7e-11
set param_card smeft 41 0.0 # orig: 1.5e-11
set param_card smeft 43 0.0 # orig: 1.6e-11
set param_card smeft 49 0.0 # orig: 2.6e-11
set param_card smeft 58 0.0 # orig: 2.7e-11
set param_card smeft 62 0.0 # orig: 2.2e-11
set param_card smeft 67 0.0 # orig: 2.8e-11
set param_card smeft 69 0.0 # orig: 2.4e-11
set param_card smeft 70 0.0 # orig: 7.3e-11
set param_card smeft 71 0.0 # orig: 7.2e-11
set param_card smeft 76 0.0 # orig: 2.9e-11
set param_card smeft 77 0.0 # orig: 2.5e-11
</weight>
<weight id='ctGRe_0p_cQj18_0p_cQj38_0p_cQj11_1p_cjj31_0p_ctu8_0p_ctd8_1p_ctj8_0p_cQu8_0p_cQd8_0p_ctu1_0p_ctd1_0p_ctj1_0p_cQu1_0p_cQd1_0p'>set param_card smeft 15 0.0 # orig: 1e-11
set param_card smeft 38 0.0 # orig: 7.1e-11
set param_card smeft 40 1.0 # orig: 1.7e-11
set param_card smeft 41 0.0 # orig: 1.5e-11
set param_card smeft 43 0.0 # orig: 1.6e-11
set param_card smeft 49 0.0 # orig: 2.6e-11
set param_card smeft 58 0.0 # orig: 2.7e-11
set param_card smeft 62 1.0 # orig: 2.2e-11
set param_card smeft 67 0.0 # orig: 2.8e-11
set param_card smeft 69 0.0 # orig: 2.4e-11
set param_card smeft 70 0.0 # orig: 7.3e-11
set param_card smeft 71 0.0 # orig: 7.2e-11
set param_card smeft 76 0.0 # orig: 2.9e-11
set param_card smeft 77 0.0 # orig: 2.5e-11
</weight>
<weight id='ctGRe_0p_cQj18_0p_cQj38_0p_cQj11_1p_cjj31_0p_ctu8_0p_ctd8_0p_ctj8_1p_cQu8_0p_cQd8_0p_ctu1_0p_ctd1_0p_ctj1_0p_cQu1_0p_cQd1_0p'>set param_card smeft 15 0.0 # orig: 1e-11
set param_card smeft 38 0.0 # orig: 7.1e-11
set param_card smeft 40 1.0 # orig: 1.7e-11
set param_card smeft 41 0.0 # orig: 1.5e-11
set param_card smeft 43 0.0 # orig: 1.6e-11
set param_card smeft 49 0.0 # orig: 2.6e-11
set param_card smeft 58 0.0 # orig: 2.7e-11
set param_card smeft 62 0.0 # orig: 2.2e-11
set param_card smeft 67 0.0 # orig: 2.8e-11
set param_card smeft 69 0.0 # orig: 2.4e-11
set param_card smeft 70 0.0 # orig: 7.3e-11
set param_card smeft 71 1.0 # orig: 7.2e-11
set param_card smeft 76 0.0 # orig: 2.9e-11
set param_card smeft 77 0.0 # orig: 2.5e-11
</weight>
<weight id='ctGRe_0p_cQj18_0p_cQj38_0p_cQj11_1p_cjj31_0p_ctu8_0p_ctd8_0p_ctj8_0p_cQu8_1p_cQd8_0p_ctu1_0p_ctd1_0p_ctj1_0p_cQu1_0p_cQd1_0p'>set param_card smeft 15 0.0 # orig: 1e-11
set param_card smeft 38 0.0 # orig: 7.1e-11
set param_card smeft 40 1.0 # orig: 1.7e-11
set param_card smeft 41 0.0 # orig: 1.5e-11
set param_card smeft 43 0.0 # orig: 1.6e-11
set param_card smeft 49 0.0 # orig: 2.6e-11
set param_card smeft 58 0.0 # orig: 2.7e-11
set param_card smeft 62 0.0 # orig: 2.2e-11
set param_card smeft 67 0.0 # orig: 2.8e-11
set param_card smeft 69 1.0 # orig: 2.4e-11
set param_card smeft 70 0.0 # orig: 7.3e-11
set param_card smeft 71 0.0 # orig: 7.2e-11
set param_card smeft 76 0.0 # orig: 2.9e-11
set param_card smeft 77 0.0 # orig: 2.5e-11
</weight>
<weight id='ctGRe_0p_cQj18_0p_cQj38_0p_cQj11_1p_cjj31_0p_ctu8_0p_ctd8_0p_ctj8_0p_cQu8_0p_cQd8_1p_ctu1_0p_ctd1_0p_ctj1_0p_cQu1_0p_cQd1_0p'>set param_card smeft 15 0.0 # orig: 1e-11
set param_card smeft 38 0.0 # orig: 7.1e-11
set param_card smeft 40 1.0 # orig: 1.7e-11
set param_card smeft 41 0.0 # orig: 1.5e-11
set param_card smeft 43 0.0 # orig: 1.6e-11
set param_card smeft 49 0.0 # orig: 2.6e-11
set param_card smeft 58 0.0 # orig: 2.7e-11
set param_card smeft 62 0.0 # orig: 2.2e-11
set param_card smeft 67 0.0 # orig: 2.8e-11
set param_card smeft 69 0.0 # orig: 2.4e-11
set param_card smeft 70 0.0 # orig: 7.3e-11
set param_card smeft 71 0.0 # orig: 7.2e-11
set param_card smeft 76 0.0 # orig: 2.9e-11
set param_card smeft 77 1.0 # orig: 2.5e-11
</weight>
<weight id='ctGRe_0p_cQj18_0p_cQj38_0p_cQj11_1p_cjj31_0p_ctu8_0p_ctd8_0p_ctj8_0p_cQu8_0p_cQd8_0p_ctu1_1p_ctd1_0p_ctj1_0p_cQu1_0p_cQd1_0p'>set param_card smeft 15 0.0 # orig: 1e-11
set param_card smeft 38 0.0 # orig: 7.1e-11
set param_card smeft 40 1.0 # orig: 1.7e-11
set param_card smeft 41 0.0 # orig: 1.5e-11
set param_card smeft 43 0.0 # orig: 1.6e-11
set param_card smeft 49 1.0 # orig: 2.6e-11
set param_card smeft 58 0.0 # orig: 2.7e-11
set param_card smeft 62 0.0 # orig: 2.2e-11
set param_card smeft 67 0.0 # orig: 2.8e-11
set param_card smeft 69 0.0 # orig: 2.4e-11
set param_card smeft 70 0.0 # orig: 7.3e-11
set param_card smeft 71 0.0 # orig: 7.2e-11
set param_card smeft 76 0.0 # orig: 2.9e-11
set param_card smeft 77 0.0 # orig: 2.5e-11
</weight>
<weight id='ctGRe_0p_cQj18_0p_cQj38_0p_cQj11_1p_cjj31_0p_ctu8_0p_ctd8_0p_ctj8_0p_cQu8_0p_cQd8_0p_ctu1_0p_ctd1_1p_ctj1_0p_cQu1_0p_cQd1_0p'>set param_card smeft 15 0.0 # orig: 1e-11
set param_card smeft 38 0.0 # orig: 7.1e-11
set param_card smeft 40 1.0 # orig: 1.7e-11
set param_card smeft 41 0.0 # orig: 1.5e-11
set param_card smeft 43 0.0 # orig: 1.6e-11
set param_card smeft 49 0.0 # orig: 2.6e-11
set param_card smeft 58 1.0 # orig: 2.7e-11
set param_card smeft 62 0.0 # orig: 2.2e-11
set param_card smeft 67 0.0 # orig: 2.8e-11
set param_card smeft 69 0.0 # orig: 2.4e-11
set param_card smeft 70 0.0 # orig: 7.3e-11
set param_card smeft 71 0.0 # orig: 7.2e-11
set param_card smeft 76 0.0 # orig: 2.9e-11
set param_card smeft 77 0.0 # orig: 2.5e-11
</weight>
<weight id='ctGRe_0p_cQj18_0p_cQj38_0p_cQj11_1p_cjj31_0p_ctu8_0p_ctd8_0p_ctj8_0p_cQu8_0p_cQd8_0p_ctu1_0p_ctd1_0p_ctj1_1p_cQu1_0p_cQd1_0p'>set param_card smeft 15 0.0 # orig: 1e-11
set param_card smeft 38 0.0 # orig: 7.1e-11
set param_card smeft 40 1.0 # orig: 1.7e-11
set param_card smeft 41 0.0 # orig: 1.5e-11
set param_card smeft 43 0.0 # orig: 1.6e-11
set param_card smeft 49 0.0 # orig: 2.6e-11
set param_card smeft 58 0.0 # orig: 2.7e-11
set param_card smeft 62 0.0 # orig: 2.2e-11
set param_card smeft 67 0.0 # orig: 2.8e-11
set param_card smeft 69 0.0 # orig: 2.4e-11
set param_card smeft 70 1.0 # orig: 7.3e-11
set param_card smeft 71 0.0 # orig: 7.2e-11
set param_card smeft 76 0.0 # orig: 2.9e-11
set param_card smeft 77 0.0 # orig: 2.5e-11
</weight>
<weight id='ctGRe_0p_cQj18_0p_cQj38_0p_cQj11_1p_cjj31_0p_ctu8_0p_ctd8_0p_ctj8_0p_cQu8_0p_cQd8_0p_ctu1_0p_ctd1_0p_ctj1_0p_cQu1_1p_cQd1_0p'>set param_card smeft 15 0.0 # orig: 1e-11
set param_card smeft 38 0.0 # orig: 7.1e-11
set param_card smeft 40 1.0 # orig: 1.7e-11
set param_card smeft 41 0.0 # orig: 1.5e-11
set param_card smeft 43 0.0 # orig: 1.6e-11
set param_card smeft 49 0.0 # orig: 2.6e-11
set param_card smeft 58 0.0 # orig: 2.7e-11
set param_card smeft 62 0.0 # orig: 2.2e-11
set param_card smeft 67 1.0 # orig: 2.8e-11
set param_card smeft 69 0.0 # orig: 2.4e-11
set param_card smeft 70 0.0 # orig: 7.3e-11
set param_card smeft 71 0.0 # orig: 7.2e-11
set param_card smeft 76 0.0 # orig: 2.9e-11
set param_card smeft 77 0.0 # orig: 2.5e-11
</weight>
<weight id='ctGRe_0p_cQj18_0p_cQj38_0p_cQj11_1p_cjj31_0p_ctu8_0p_ctd8_0p_ctj8_0p_cQu8_0p_cQd8_0p_ctu1_0p_ctd1_0p_ctj1_0p_cQu1_0p_cQd1_1p'>set param_card smeft 15 0.0 # orig: 1e-11
set param_card smeft 38 0.0 # orig: 7.1e-11
set param_card smeft 40 1.0 # orig: 1.7e-11
set param_card smeft 41 0.0 # orig: 1.5e-11
set param_card smeft 43 0.0 # orig: 1.6e-11
set param_card smeft 49 0.0 # orig: 2.6e-11
set param_card smeft 58 0.0 # orig: 2.7e-11
set param_card smeft 62 0.0 # orig: 2.2e-11
set param_card smeft 67 0.0 # orig: 2.8e-11
set param_card smeft 69 0.0 # orig: 2.4e-11
set param_card smeft 70 0.0 # orig: 7.3e-11
set param_card smeft 71 0.0 # orig: 7.2e-11
set param_card smeft 76 1.0 # orig: 2.9e-11
set param_card smeft 77 0.0 # orig: 2.5e-11
</weight>
<weight id='ctGRe_0p_cQj18_0p_cQj38_0p_cQj11_0p_cjj31_2p_ctu8_0p_ctd8_0p_ctj8_0p_cQu8_0p_cQd8_0p_ctu1_0p_ctd1_0p_ctj1_0p_cQu1_0p_cQd1_0p'>set param_card smeft 15 0.0 # orig: 1e-11
set param_card smeft 38 2.0 # orig: 7.1e-11
set param_card smeft 40 0.0 # orig: 1.7e-11
set param_card smeft 41 0.0 # orig: 1.5e-11
set param_card smeft 43 0.0 # orig: 1.6e-11
set param_card smeft 49 0.0 # orig: 2.6e-11
set param_card smeft 58 0.0 # orig: 2.7e-11
set param_card smeft 62 0.0 # orig: 2.2e-11
set param_card smeft 67 0.0 # orig: 2.8e-11
set param_card smeft 69 0.0 # orig: 2.4e-11
set param_card smeft 70 0.0 # orig: 7.3e-11
set param_card smeft 71 0.0 # orig: 7.2e-11
set param_card smeft 76 0.0 # orig: 2.9e-11
set param_card smeft 77 0.0 # orig: 2.5e-11
</weight>
<weight id='ctGRe_0p_cQj18_0p_cQj38_0p_cQj11_0p_cjj31_1p_ctu8_1p_ctd8_0p_ctj8_0p_cQu8_0p_cQd8_0p_ctu1_0p_ctd1_0p_ctj1_0p_cQu1_0p_cQd1_0p'>set param_card smeft 15 0.0 # orig: 1e-11
set param_card smeft 38 1.0 # orig: 7.1e-11
set param_card smeft 40 0.0 # orig: 1.7e-11
set param_card smeft 41 0.0 # orig: 1.5e-11
set param_card smeft 43 0.0 # orig: 1.6e-11
set param_card smeft 49 0.0 # orig: 2.6e-11
set param_card smeft 58 0.0 # orig: 2.7e-11
set param_card smeft 62 0.0 # orig: 2.2e-11
set param_card smeft 67 0.0 # orig: 2.8e-11
set param_card smeft 69 0.0 # orig: 2.4e-11
set param_card smeft 70 0.0 # orig: 7.3e-11
set param_card smeft 71 0.0 # orig: 7.2e-11
set param_card smeft 76 0.0 # orig: 2.9e-11
set param_card smeft 77 0.0 # orig: 2.5e-11
</weight>
<weight id='ctGRe_0p_cQj18_0p_cQj38_0p_cQj11_0p_cjj31_1p_ctu8_0p_ctd8_1p_ctj8_0p_cQu8_0p_cQd8_0p_ctu1_0p_ctd1_0p_ctj1_0p_cQu1_0p_cQd1_0p'>set param_card smeft 15 0.0 # orig: 1e-11
set param_card smeft 38 1.0 # orig: 7.1e-11
set param_card smeft 40 0.0 # orig: 1.7e-11
set param_card smeft 41 0.0 # orig: 1.5e-11
set param_card smeft 43 0.0 # orig: 1.6e-11
set param_card smeft 49 0.0 # orig: 2.6e-11
set param_card smeft 58 0.0 # orig: 2.7e-11
set param_card smeft 62 1.0 # orig: 2.2e-11
set param_card smeft 67 0.0 # orig: 2.8e-11
set param_card smeft 69 0.0 # orig: 2.4e-11
set param_card smeft 70 0.0 # orig: 7.3e-11
set param_card smeft 71 0.0 # orig: 7.2e-11
set param_card smeft 76 0.0 # orig: 2.9e-11
set param_card smeft 77 0.0 # orig: 2.5e-11
</weight>
<weight id='ctGRe_0p_cQj18_0p_cQj38_0p_cQj11_0p_cjj31_1p_ctu8_0p_ctd8_0p_ctj8_1p_cQu8_0p_cQd8_0p_ctu1_0p_ctd1_0p_ctj1_0p_cQu1_0p_cQd1_0p'>set param_card smeft 15 0.0 # orig: 1e-11
set param_card smeft 38 1.0 # orig: 7.1e-11
set param_card smeft 40 0.0 # orig: 1.7e-11
set param_card smeft 41 0.0 # orig: 1.5e-11
set param_card smeft 43 0.0 # orig: 1.6e-11
set param_card smeft 49 0.0 # orig: 2.6e-11
set param_card smeft 58 0.0 # orig: 2.7e-11
set param_card smeft 62 0.0 # orig: 2.2e-11
set param_card smeft 67 0.0 # orig: 2.8e-11
set param_card smeft 69 0.0 # orig: 2.4e-11
set param_card smeft 70 0.0 # orig: 7.3e-11
set param_card smeft 71 1.0 # orig: 7.2e-11
set param_card smeft 76 0.0 # orig: 2.9e-11
set param_card smeft 77 0.0 # orig: 2.5e-11
</weight>
<weight id='ctGRe_0p_cQj18_0p_cQj38_0p_cQj11_0p_cjj31_1p_ctu8_0p_ctd8_0p_ctj8_0p_cQu8_1p_cQd8_0p_ctu1_0p_ctd1_0p_ctj1_0p_cQu1_0p_cQd1_0p'>set param_card smeft 15 0.0 # orig: 1e-11
set param_card smeft 38 1.0 # orig: 7.1e-11
set param_card smeft 40 0.0 # orig: 1.7e-11
set param_card smeft 41 0.0 # orig: 1.5e-11
set param_card smeft 43 0.0 # orig: 1.6e-11
set param_card smeft 49 0.0 # orig: 2.6e-11
set param_card smeft 58 0.0 # orig: 2.7e-11
set param_card smeft 62 0.0 # orig: 2.2e-11
set param_card smeft 67 0.0 # orig: 2.8e-11
set param_card smeft 69 1.0 # orig: 2.4e-11
set param_card smeft 70 0.0 # orig: 7.3e-11
set param_card smeft 71 0.0 # orig: 7.2e-11
set param_card smeft 76 0.0 # orig: 2.9e-11
set param_card smeft 77 0.0 # orig: 2.5e-11
</weight>
<weight id='ctGRe_0p_cQj18_0p_cQj38_0p_cQj11_0p_cjj31_1p_ctu8_0p_ctd8_0p_ctj8_0p_cQu8_0p_cQd8_1p_ctu1_0p_ctd1_0p_ctj1_0p_cQu1_0p_cQd1_0p'>set param_card smeft 15 0.0 # orig: 1e-11
set param_card smeft 38 1.0 # orig: 7.1e-11
set param_card smeft 40 0.0 # orig: 1.7e-11
set param_card smeft 41 0.0 # orig: 1.5e-11
set param_card smeft 43 0.0 # orig: 1.6e-11
set param_card smeft 49 0.0 # orig: 2.6e-11
set param_card smeft 58 0.0 # orig: 2.7e-11
set param_card smeft 62 0.0 # orig: 2.2e-11
set param_card smeft 67 0.0 # orig: 2.8e-11
set param_card smeft 69 0.0 # orig: 2.4e-11
set param_card smeft 70 0.0 # orig: 7.3e-11
set param_card smeft 71 0.0 # orig: 7.2e-11
set param_card smeft 76 0.0 # orig: 2.9e-11
set param_card smeft 77 1.0 # orig: 2.5e-11
</weight>
<weight id='ctGRe_0p_cQj18_0p_cQj38_0p_cQj11_0p_cjj31_1p_ctu8_0p_ctd8_0p_ctj8_0p_cQu8_0p_cQd8_0p_ctu1_1p_ctd1_0p_ctj1_0p_cQu1_0p_cQd1_0p'>set param_card smeft 15 0.0 # orig: 1e-11
set param_card smeft 38 1.0 # orig: 7.1e-11
set param_card smeft 40 0.0 # orig: 1.7e-11
set param_card smeft 41 0.0 # orig: 1.5e-11
set param_card smeft 43 0.0 # orig: 1.6e-11
set param_card smeft 49 1.0 # orig: 2.6e-11
set param_card smeft 58 0.0 # orig: 2.7e-11
set param_card smeft 62 0.0 # orig: 2.2e-11
set param_card smeft 67 0.0 # orig: 2.8e-11
set param_card smeft 69 0.0 # orig: 2.4e-11
set param_card smeft 70 0.0 # orig: 7.3e-11
set param_card smeft 71 0.0 # orig: 7.2e-11
set param_card smeft 76 0.0 # orig: 2.9e-11
set param_card smeft 77 0.0 # orig: 2.5e-11
</weight>
<weight id='ctGRe_0p_cQj18_0p_cQj38_0p_cQj11_0p_cjj31_1p_ctu8_0p_ctd8_0p_ctj8_0p_cQu8_0p_cQd8_0p_ctu1_0p_ctd1_1p_ctj1_0p_cQu1_0p_cQd1_0p'>set param_card smeft 15 0.0 # orig: 1e-11
set param_card smeft 38 1.0 # orig: 7.1e-11
set param_card smeft 40 0.0 # orig: 1.7e-11
set param_card smeft 41 0.0 # orig: 1.5e-11
set param_card smeft 43 0.0 # orig: 1.6e-11
set param_card smeft 49 0.0 # orig: 2.6e-11
set param_card smeft 58 1.0 # orig: 2.7e-11
set param_card smeft 62 0.0 # orig: 2.2e-11
set param_card smeft 67 0.0 # orig: 2.8e-11
set param_card smeft 69 0.0 # orig: 2.4e-11
set param_card smeft 70 0.0 # orig: 7.3e-11
set param_card smeft 71 0.0 # orig: 7.2e-11
set param_card smeft 76 0.0 # orig: 2.9e-11
set param_card smeft 77 0.0 # orig: 2.5e-11
</weight>
<weight id='ctGRe_0p_cQj18_0p_cQj38_0p_cQj11_0p_cjj31_1p_ctu8_0p_ctd8_0p_ctj8_0p_cQu8_0p_cQd8_0p_ctu1_0p_ctd1_0p_ctj1_1p_cQu1_0p_cQd1_0p'>set param_card smeft 15 0.0 # orig: 1e-11
set param_card smeft 38 1.0 # orig: 7.1e-11
set param_card smeft 40 0.0 # orig: 1.7e-11
set param_card smeft 41 0.0 # orig: 1.5e-11
set param_card smeft 43 0.0 # orig: 1.6e-11
set param_card smeft 49 0.0 # orig: 2.6e-11
set param_card smeft 58 0.0 # orig: 2.7e-11
set param_card smeft 62 0.0 # orig: 2.2e-11
set param_card smeft 67 0.0 # orig: 2.8e-11
set param_card smeft 69 0.0 # orig: 2.4e-11
set param_card smeft 70 1.0 # orig: 7.3e-11
set param_card smeft 71 0.0 # orig: 7.2e-11
set param_card smeft 76 0.0 # orig: 2.9e-11
set param_card smeft 77 0.0 # orig: 2.5e-11
</weight>
<weight id='ctGRe_0p_cQj18_0p_cQj38_0p_cQj11_0p_cjj31_1p_ctu8_0p_ctd8_0p_ctj8_0p_cQu8_0p_cQd8_0p_ctu1_0p_ctd1_0p_ctj1_0p_cQu1_1p_cQd1_0p'>set param_card smeft 15 0.0 # orig: 1e-11
set param_card smeft 38 1.0 # orig: 7.1e-11
set param_card smeft 40 0.0 # orig: 1.7e-11
set param_card smeft 41 0.0 # orig: 1.5e-11
set param_card smeft 43 0.0 # orig: 1.6e-11
set param_card smeft 49 0.0 # orig: 2.6e-11
set param_card smeft 58 0.0 # orig: 2.7e-11
set param_card smeft 62 0.0 # orig: 2.2e-11
set param_card smeft 67 1.0 # orig: 2.8e-11
set param_card smeft 69 0.0 # orig: 2.4e-11
set param_card smeft 70 0.0 # orig: 7.3e-11
set param_card smeft 71 0.0 # orig: 7.2e-11
set param_card smeft 76 0.0 # orig: 2.9e-11
set param_card smeft 77 0.0 # orig: 2.5e-11
</weight>
<weight id='ctGRe_0p_cQj18_0p_cQj38_0p_cQj11_0p_cjj31_1p_ctu8_0p_ctd8_0p_ctj8_0p_cQu8_0p_cQd8_0p_ctu1_0p_ctd1_0p_ctj1_0p_cQu1_0p_cQd1_1p'>set param_card smeft 15 0.0 # orig: 1e-11
set param_card smeft 38 1.0 # orig: 7.1e-11
set param_card smeft 40 0.0 # orig: 1.7e-11
set param_card smeft 41 0.0 # orig: 1.5e-11
set param_card smeft 43 0.0 # orig: 1.6e-11
set param_card smeft 49 0.0 # orig: 2.6e-11
set param_card smeft 58 0.0 # orig: 2.7e-11
set param_card smeft 62 0.0 # orig: 2.2e-11
set param_card smeft 67 0.0 # orig: 2.8e-11
set param_card smeft 69 0.0 # orig: 2.4e-11
set param_card smeft 70 0.0 # orig: 7.3e-11
set param_card smeft 71 0.0 # orig: 7.2e-11
set param_card smeft 76 1.0 # orig: 2.9e-11
set param_card smeft 77 0.0 # orig: 2.5e-11
</weight>
<weight id='ctGRe_0p_cQj18_0p_cQj38_0p_cQj11_0p_cjj31_0p_ctu8_2p_ctd8_0p_ctj8_0p_cQu8_0p_cQd8_0p_ctu1_0p_ctd1_0p_ctj1_0p_cQu1_0p_cQd1_0p'>set param_card smeft 15 0.0 # orig: 1e-11
set param_card smeft 38 0.0 # orig: 7.1e-11
set param_card smeft 40 0.0 # orig: 1.7e-11
set param_card smeft 41 0.0 # orig: 1.5e-11
set param_card smeft 43 0.0 # orig: 1.6e-11
set param_card smeft 49 0.0 # orig: 2.6e-11
set param_card smeft 58 0.0 # orig: 2.7e-11
set param_card smeft 62 0.0 # orig: 2.2e-11
set param_card smeft 67 0.0 # orig: 2.8e-11
set param_card smeft 69 0.0 # orig: 2.4e-11
set param_card smeft 70 0.0 # orig: 7.3e-11
set param_card smeft 71 0.0 # orig: 7.2e-11
set param_card smeft 76 0.0 # orig: 2.9e-11
set param_card smeft 77 0.0 # orig: 2.5e-11
</weight>
<weight id='ctGRe_0p_cQj18_0p_cQj38_0p_cQj11_0p_cjj31_0p_ctu8_1p_ctd8_1p_ctj8_0p_cQu8_0p_cQd8_0p_ctu1_0p_ctd1_0p_ctj1_0p_cQu1_0p_cQd1_0p'>set param_card smeft 15 0.0 # orig: 1e-11
set param_card smeft 38 0.0 # orig: 7.1e-11
set param_card smeft 40 0.0 # orig: 1.7e-11
set param_card smeft 41 0.0 # orig: 1.5e-11
set param_card smeft 43 0.0 # orig: 1.6e-11
set param_card smeft 49 0.0 # orig: 2.6e-11
set param_card smeft 58 0.0 # orig: 2.7e-11
set param_card smeft 62 1.0 # orig: 2.2e-11
set param_card smeft 67 0.0 # orig: 2.8e-11
set param_card smeft 69 0.0 # orig: 2.4e-11
set param_card smeft 70 0.0 # orig: 7.3e-11
set param_card smeft 71 0.0 # orig: 7.2e-11
set param_card smeft 76 0.0 # orig: 2.9e-11
set param_card smeft 77 0.0 # orig: 2.5e-11
</weight>
<weight id='ctGRe_0p_cQj18_0p_cQj38_0p_cQj11_0p_cjj31_0p_ctu8_1p_ctd8_0p_ctj8_1p_cQu8_0p_cQd8_0p_ctu1_0p_ctd1_0p_ctj1_0p_cQu1_0p_cQd1_0p'>set param_card smeft 15 0.0 # orig: 1e-11
set param_card smeft 38 0.0 # orig: 7.1e-11
set param_card smeft 40 0.0 # orig: 1.7e-11
set param_card smeft 41 0.0 # orig: 1.5e-11
set param_card smeft 43 0.0 # orig: 1.6e-11
set param_card smeft 49 0.0 # orig: 2.6e-11
set param_card smeft 58 0.0 # orig: 2.7e-11
set param_card smeft 62 0.0 # orig: 2.2e-11
set param_card smeft 67 0.0 # orig: 2.8e-11
set param_card smeft 69 0.0 # orig: 2.4e-11
set param_card smeft 70 0.0 # orig: 7.3e-11
set param_card smeft 71 1.0 # orig: 7.2e-11
set param_card smeft 76 0.0 # orig: 2.9e-11
set param_card smeft 77 0.0 # orig: 2.5e-11
</weight>
<weight id='ctGRe_0p_cQj18_0p_cQj38_0p_cQj11_0p_cjj31_0p_ctu8_1p_ctd8_0p_ctj8_0p_cQu8_1p_cQd8_0p_ctu1_0p_ctd1_0p_ctj1_0p_cQu1_0p_cQd1_0p'>set param_card smeft 15 0.0 # orig: 1e-11
set param_card smeft 38 0.0 # orig: 7.1e-11
set param_card smeft 40 0.0 # orig: 1.7e-11
set param_card smeft 41 0.0 # orig: 1.5e-11
set param_card smeft 43 0.0 # orig: 1.6e-11
set param_card smeft 49 0.0 # orig: 2.6e-11
set param_card smeft 58 0.0 # orig: 2.7e-11
set param_card smeft 62 0.0 # orig: 2.2e-11
set param_card smeft 67 0.0 # orig: 2.8e-11
set param_card smeft 69 1.0 # orig: 2.4e-11
set param_card smeft 70 0.0 # orig: 7.3e-11
set param_card smeft 71 0.0 # orig: 7.2e-11
set param_card smeft 76 0.0 # orig: 2.9e-11
set param_card smeft 77 0.0 # orig: 2.5e-11
</weight>
<weight id='ctGRe_0p_cQj18_0p_cQj38_0p_cQj11_0p_cjj31_0p_ctu8_1p_ctd8_0p_ctj8_0p_cQu8_0p_cQd8_1p_ctu1_0p_ctd1_0p_ctj1_0p_cQu1_0p_cQd1_0p'>set param_card smeft 15 0.0 # orig: 1e-11
set param_card smeft 38 0.0 # orig: 7.1e-11
set param_card smeft 40 0.0 # orig: 1.7e-11
set param_card smeft 41 0.0 # orig: 1.5e-11
set param_card smeft 43 0.0 # orig: 1.6e-11
set param_card smeft 49 0.0 # orig: 2.6e-11
set param_card smeft 58 0.0 # orig: 2.7e-11
set param_card smeft 62 0.0 # orig: 2.2e-11
set param_card smeft 67 0.0 # orig: 2.8e-11
set param_card smeft 69 0.0 # orig: 2.4e-11
set param_card smeft 70 0.0 # orig: 7.3e-11
set param_card smeft 71 0.0 # orig: 7.2e-11
set param_card smeft 76 0.0 # orig: 2.9e-11
set param_card smeft 77 1.0 # orig: 2.5e-11
</weight>
<weight id='ctGRe_0p_cQj18_0p_cQj38_0p_cQj11_0p_cjj31_0p_ctu8_1p_ctd8_0p_ctj8_0p_cQu8_0p_cQd8_0p_ctu1_1p_ctd1_0p_ctj1_0p_cQu1_0p_cQd1_0p'>set param_card smeft 15 0.0 # orig: 1e-11
set param_card smeft 38 0.0 # orig: 7.1e-11
set param_card smeft 40 0.0 # orig: 1.7e-11
set param_card smeft 41 0.0 # orig: 1.5e-11
set param_card smeft 43 0.0 # orig: 1.6e-11
set param_card smeft 49 1.0 # orig: 2.6e-11
set param_card smeft 58 0.0 # orig: 2.7e-11
set param_card smeft 62 0.0 # orig: 2.2e-11
set param_card smeft 67 0.0 # orig: 2.8e-11
set param_card smeft 69 0.0 # orig: 2.4e-11
set param_card smeft 70 0.0 # orig: 7.3e-11
set param_card smeft 71 0.0 # orig: 7.2e-11
set param_card smeft 76 0.0 # orig: 2.9e-11
set param_card smeft 77 0.0 # orig: 2.5e-11
</weight>
<weight id='ctGRe_0p_cQj18_0p_cQj38_0p_cQj11_0p_cjj31_0p_ctu8_1p_ctd8_0p_ctj8_0p_cQu8_0p_cQd8_0p_ctu1_0p_ctd1_1p_ctj1_0p_cQu1_0p_cQd1_0p'>set param_card smeft 15 0.0 # orig: 1e-11
set param_card smeft 38 0.0 # orig: 7.1e-11
set param_card smeft 40 0.0 # orig: 1.7e-11
set param_card smeft 41 0.0 # orig: 1.5e-11
set param_card smeft 43 0.0 # orig: 1.6e-11
set param_card smeft 49 0.0 # orig: 2.6e-11
set param_card smeft 58 1.0 # orig: 2.7e-11
set param_card smeft 62 0.0 # orig: 2.2e-11
set param_card smeft 67 0.0 # orig: 2.8e-11
set param_card smeft 69 0.0 # orig: 2.4e-11
set param_card smeft 70 0.0 # orig: 7.3e-11
set param_card smeft 71 0.0 # orig: 7.2e-11
set param_card smeft 76 0.0 # orig: 2.9e-11
set param_card smeft 77 0.0 # orig: 2.5e-11
</weight>
<weight id='ctGRe_0p_cQj18_0p_cQj38_0p_cQj11_0p_cjj31_0p_ctu8_1p_ctd8_0p_ctj8_0p_cQu8_0p_cQd8_0p_ctu1_0p_ctd1_0p_ctj1_1p_cQu1_0p_cQd1_0p'>set param_card smeft 15 0.0 # orig: 1e-11
set param_card smeft 38 0.0 # orig: 7.1e-11
set param_card smeft 40 0.0 # orig: 1.7e-11
set param_card smeft 41 0.0 # orig: 1.5e-11
set param_card smeft 43 0.0 # orig: 1.6e-11
set param_card smeft 49 0.0 # orig: 2.6e-11
set param_card smeft 58 0.0 # orig: 2.7e-11
set param_card smeft 62 0.0 # orig: 2.2e-11
set param_card smeft 67 0.0 # orig: 2.8e-11
set param_card smeft 69 0.0 # orig: 2.4e-11
set param_card smeft 70 1.0 # orig: 7.3e-11
set param_card smeft 71 0.0 # orig: 7.2e-11
set param_card smeft 76 0.0 # orig: 2.9e-11
set param_card smeft 77 0.0 # orig: 2.5e-11
</weight>
<weight id='ctGRe_0p_cQj18_0p_cQj38_0p_cQj11_0p_cjj31_0p_ctu8_1p_ctd8_0p_ctj8_0p_cQu8_0p_cQd8_0p_ctu1_0p_ctd1_0p_ctj1_0p_cQu1_1p_cQd1_0p'>set param_card smeft 15 0.0 # orig: 1e-11
set param_card smeft 38 0.0 # orig: 7.1e-11
set param_card smeft 40 0.0 # orig: 1.7e-11
set param_card smeft 41 0.0 # orig: 1.5e-11
set param_card smeft 43 0.0 # orig: 1.6e-11
set param_card smeft 49 0.0 # orig: 2.6e-11
set param_card smeft 58 0.0 # orig: 2.7e-11
set param_card smeft 62 0.0 # orig: 2.2e-11
set param_card smeft 67 1.0 # orig: 2.8e-11
set param_card smeft 69 0.0 # orig: 2.4e-11
set param_card smeft 70 0.0 # orig: 7.3e-11
set param_card smeft 71 0.0 # orig: 7.2e-11
set param_card smeft 76 0.0 # orig: 2.9e-11
set param_card smeft 77 0.0 # orig: 2.5e-11
</weight>
<weight id='ctGRe_0p_cQj18_0p_cQj38_0p_cQj11_0p_cjj31_0p_ctu8_1p_ctd8_0p_ctj8_0p_cQu8_0p_cQd8_0p_ctu1_0p_ctd1_0p_ctj1_0p_cQu1_0p_cQd1_1p'>set param_card smeft 15 0.0 # orig: 1e-11
set param_card smeft 38 0.0 # orig: 7.1e-11
set param_card smeft 40 0.0 # orig: 1.7e-11
set param_card smeft 41 0.0 # orig: 1.5e-11
set param_card smeft 43 0.0 # orig: 1.6e-11
set param_card smeft 49 0.0 # orig: 2.6e-11
set param_card smeft 58 0.0 # orig: 2.7e-11
set param_card smeft 62 0.0 # orig: 2.2e-11
set param_card smeft 67 0.0 # orig: 2.8e-11
set param_card smeft 69 0.0 # orig: 2.4e-11
set param_card smeft 70 0.0 # orig: 7.3e-11
set param_card smeft 71 0.0 # orig: 7.2e-11
set param_card smeft 76 1.0 # orig: 2.9e-11
set param_card smeft 77 0.0 # orig: 2.5e-11
</weight>
<weight id='ctGRe_0p_cQj18_0p_cQj38_0p_cQj11_0p_cjj31_0p_ctu8_0p_ctd8_2p_ctj8_0p_cQu8_0p_cQd8_0p_ctu1_0p_ctd1_0p_ctj1_0p_cQu1_0p_cQd1_0p'>set param_card smeft 15 0.0 # orig: 1e-11
set param_card smeft 38 0.0 # orig: 7.1e-11
set param_card smeft 40 0.0 # orig: 1.7e-11
set param_card smeft 41 0.0 # orig: 1.5e-11
set param_card smeft 43 0.0 # orig: 1.6e-11
set param_card smeft 49 0.0 # orig: 2.6e-11
set param_card smeft 58 0.0 # orig: 2.7e-11
set param_card smeft 62 2.0 # orig: 2.2e-11
set param_card smeft 67 0.0 # orig: 2.8e-11
set param_card smeft 69 0.0 # orig: 2.4e-11
set param_card smeft 70 0.0 # orig: 7.3e-11
set param_card smeft 71 0.0 # orig: 7.2e-11
set param_card smeft 76 0.0 # orig: 2.9e-11
set param_card smeft 77 0.0 # orig: 2.5e-11
</weight>
<weight id='ctGRe_0p_cQj18_0p_cQj38_0p_cQj11_0p_cjj31_0p_ctu8_0p_ctd8_1p_ctj8_1p_cQu8_0p_cQd8_0p_ctu1_0p_ctd1_0p_ctj1_0p_cQu1_0p_cQd1_0p'>set param_card smeft 15 0.0 # orig: 1e-11
set param_card smeft 38 0.0 # orig: 7.1e-11
set param_card smeft 40 0.0 # orig: 1.7e-11
set param_card smeft 41 0.0 # orig: 1.5e-11
set param_card smeft 43 0.0 # orig: 1.6e-11
set param_card smeft 49 0.0 # orig: 2.6e-11
set param_card smeft 58 0.0 # orig: 2.7e-11
set param_card smeft 62 1.0 # orig: 2.2e-11
set param_card smeft 67 0.0 # orig: 2.8e-11
set param_card smeft 69 0.0 # orig: 2.4e-11
set param_card smeft 70 0.0 # orig: 7.3e-11
set param_card smeft 71 1.0 # orig: 7.2e-11
set param_card smeft 76 0.0 # orig: 2.9e-11
set param_card smeft 77 0.0 # orig: 2.5e-11
</weight>
<weight id='ctGRe_0p_cQj18_0p_cQj38_0p_cQj11_0p_cjj31_0p_ctu8_0p_ctd8_1p_ctj8_0p_cQu8_1p_cQd8_0p_ctu1_0p_ctd1_0p_ctj1_0p_cQu1_0p_cQd1_0p'>set param_card smeft 15 0.0 # orig: 1e-11
set param_card smeft 38 0.0 # orig: 7.1e-11
set param_card smeft 40 0.0 # orig: 1.7e-11
set param_card smeft 41 0.0 # orig: 1.5e-11
set param_card smeft 43 0.0 # orig: 1.6e-11
set param_card smeft 49 0.0 # orig: 2.6e-11
set param_card smeft 58 0.0 # orig: 2.7e-11
set param_card smeft 62 1.0 # orig: 2.2e-11
set param_card smeft 67 0.0 # orig: 2.8e-11
set param_card smeft 69 1.0 # orig: 2.4e-11
set param_card smeft 70 0.0 # orig: 7.3e-11
set param_card smeft 71 0.0 # orig: 7.2e-11
set param_card smeft 76 0.0 # orig: 2.9e-11
set param_card smeft 77 0.0 # orig: 2.5e-11
</weight>
<weight id='ctGRe_0p_cQj18_0p_cQj38_0p_cQj11_0p_cjj31_0p_ctu8_0p_ctd8_1p_ctj8_0p_cQu8_0p_cQd8_1p_ctu1_0p_ctd1_0p_ctj1_0p_cQu1_0p_cQd1_0p'>set param_card smeft 15 0.0 # orig: 1e-11
set param_card smeft 38 0.0 # orig: 7.1e-11
set param_card smeft 40 0.0 # orig: 1.7e-11
set param_card smeft 41 0.0 # orig: 1.5e-11
set param_card smeft 43 0.0 # orig: 1.6e-11
set param_card smeft 49 0.0 # orig: 2.6e-11
set param_card smeft 58 0.0 # orig: 2.7e-11
set param_card smeft 62 1.0 # orig: 2.2e-11
set param_card smeft 67 0.0 # orig: 2.8e-11
set param_card smeft 69 0.0 # orig: 2.4e-11
set param_card smeft 70 0.0 # orig: 7.3e-11
set param_card smeft 71 0.0 # orig: 7.2e-11
set param_card smeft 76 0.0 # orig: 2.9e-11
set param_card smeft 77 1.0 # orig: 2.5e-11
</weight>
<weight id='ctGRe_0p_cQj18_0p_cQj38_0p_cQj11_0p_cjj31_0p_ctu8_0p_ctd8_1p_ctj8_0p_cQu8_0p_cQd8_0p_ctu1_1p_ctd1_0p_ctj1_0p_cQu1_0p_cQd1_0p'>set param_card smeft 15 0.0 # orig: 1e-11
set param_card smeft 38 0.0 # orig: 7.1e-11
set param_card smeft 40 0.0 # orig: 1.7e-11
set param_card smeft 41 0.0 # orig: 1.5e-11
set param_card smeft 43 0.0 # orig: 1.6e-11
set param_card smeft 49 1.0 # orig: 2.6e-11
set param_card smeft 58 0.0 # orig: 2.7e-11
set param_card smeft 62 1.0 # orig: 2.2e-11
set param_card smeft 67 0.0 # orig: 2.8e-11
set param_card smeft 69 0.0 # orig: 2.4e-11
set param_card smeft 70 0.0 # orig: 7.3e-11
set param_card smeft 71 0.0 # orig: 7.2e-11
set param_card smeft 76 0.0 # orig: 2.9e-11
set param_card smeft 77 0.0 # orig: 2.5e-11
</weight>
<weight id='ctGRe_0p_cQj18_0p_cQj38_0p_cQj11_0p_cjj31_0p_ctu8_0p_ctd8_1p_ctj8_0p_cQu8_0p_cQd8_0p_ctu1_0p_ctd1_1p_ctj1_0p_cQu1_0p_cQd1_0p'>set param_card smeft 15 0.0 # orig: 1e-11
set param_card smeft 38 0.0 # orig: 7.1e-11
set param_card smeft 40 0.0 # orig: 1.7e-11
set param_card smeft 41 0.0 # orig: 1.5e-11
set param_card smeft 43 0.0 # orig: 1.6e-11
set param_card smeft 49 0.0 # orig: 2.6e-11
set param_card smeft 58 1.0 # orig: 2.7e-11
set param_card smeft 62 1.0 # orig: 2.2e-11
set param_card smeft 67 0.0 # orig: 2.8e-11
set param_card smeft 69 0.0 # orig: 2.4e-11
set param_card smeft 70 0.0 # orig: 7.3e-11
set param_card smeft 71 0.0 # orig: 7.2e-11
set param_card smeft 76 0.0 # orig: 2.9e-11
set param_card smeft 77 0.0 # orig: 2.5e-11
</weight>
<weight id='ctGRe_0p_cQj18_0p_cQj38_0p_cQj11_0p_cjj31_0p_ctu8_0p_ctd8_1p_ctj8_0p_cQu8_0p_cQd8_0p_ctu1_0p_ctd1_0p_ctj1_1p_cQu1_0p_cQd1_0p'>set param_card smeft 15 0.0 # orig: 1e-11
set param_card smeft 38 0.0 # orig: 7.1e-11
set param_card smeft 40 0.0 # orig: 1.7e-11
set param_card smeft 41 0.0 # orig: 1.5e-11
set param_card smeft 43 0.0 # orig: 1.6e-11
set param_card smeft 49 0.0 # orig: 2.6e-11
set param_card smeft 58 0.0 # orig: 2.7e-11
set param_card smeft 62 1.0 # orig: 2.2e-11
set param_card smeft 67 0.0 # orig: 2.8e-11
set param_card smeft 69 0.0 # orig: 2.4e-11
set param_card smeft 70 1.0 # orig: 7.3e-11
set param_card smeft 71 0.0 # orig: 7.2e-11
set param_card smeft 76 0.0 # orig: 2.9e-11
set param_card smeft 77 0.0 # orig: 2.5e-11
</weight>
<weight id='ctGRe_0p_cQj18_0p_cQj38_0p_cQj11_0p_cjj31_0p_ctu8_0p_ctd8_1p_ctj8_0p_cQu8_0p_cQd8_0p_ctu1_0p_ctd1_0p_ctj1_0p_cQu1_1p_cQd1_0p'>set param_card smeft 15 0.0 # orig: 1e-11
set param_card smeft 38 0.0 # orig: 7.1e-11
set param_card smeft 40 0.0 # orig: 1.7e-11
set param_card smeft 41 0.0 # orig: 1.5e-11
set param_card smeft 43 0.0 # orig: 1.6e-11
set param_card smeft 49 0.0 # orig: 2.6e-11
set param_card smeft 58 0.0 # orig: 2.7e-11
set param_card smeft 62 1.0 # orig: 2.2e-11
set param_card smeft 67 1.0 # orig: 2.8e-11
set param_card smeft 69 0.0 # orig: 2.4e-11
set param_card smeft 70 0.0 # orig: 7.3e-11
set param_card smeft 71 0.0 # orig: 7.2e-11
set param_card smeft 76 0.0 # orig: 2.9e-11
set param_card smeft 77 0.0 # orig: 2.5e-11
</weight>
<weight id='ctGRe_0p_cQj18_0p_cQj38_0p_cQj11_0p_cjj31_0p_ctu8_0p_ctd8_1p_ctj8_0p_cQu8_0p_cQd8_0p_ctu1_0p_ctd1_0p_ctj1_0p_cQu1_0p_cQd1_1p'>set param_card smeft 15 0.0 # orig: 1e-11
set param_card smeft 38 0.0 # orig: 7.1e-11
set param_card smeft 40 0.0 # orig: 1.7e-11
set param_card smeft 41 0.0 # orig: 1.5e-11
set param_card smeft 43 0.0 # orig: 1.6e-11
set param_card smeft 49 0.0 # orig: 2.6e-11
set param_card smeft 58 0.0 # orig: 2.7e-11
set param_card smeft 62 1.0 # orig: 2.2e-11
set param_card smeft 67 0.0 # orig: 2.8e-11
set param_card smeft 69 0.0 # orig: 2.4e-11
set param_card smeft 70 0.0 # orig: 7.3e-11
set param_card smeft 71 0.0 # orig: 7.2e-11
set param_card smeft 76 1.0 # orig: 2.9e-11
set param_card smeft 77 0.0 # orig: 2.5e-11
</weight>
<weight id='ctGRe_0p_cQj18_0p_cQj38_0p_cQj11_0p_cjj31_0p_ctu8_0p_ctd8_0p_ctj8_2p_cQu8_0p_cQd8_0p_ctu1_0p_ctd1_0p_ctj1_0p_cQu1_0p_cQd1_0p'>set param_card smeft 15 0.0 # orig: 1e-11
set param_card smeft 38 0.0 # orig: 7.1e-11
set param_card smeft 40 0.0 # orig: 1.7e-11
set param_card smeft 41 0.0 # orig: 1.5e-11
set param_card smeft 43 0.0 # orig: 1.6e-11
set param_card smeft 49 0.0 # orig: 2.6e-11
set param_card smeft 58 0.0 # orig: 2.7e-11
set param_card smeft 62 0.0 # orig: 2.2e-11
set param_card smeft 67 0.0 # orig: 2.8e-11
set param_card smeft 69 0.0 # orig: 2.4e-11
set param_card smeft 70 0.0 # orig: 7.3e-11
set param_card smeft 71 2.0 # orig: 7.2e-11
set param_card smeft 76 0.0 # orig: 2.9e-11
set param_card smeft 77 0.0 # orig: 2.5e-11
</weight>
<weight id='ctGRe_0p_cQj18_0p_cQj38_0p_cQj11_0p_cjj31_0p_ctu8_0p_ctd8_0p_ctj8_1p_cQu8_1p_cQd8_0p_ctu1_0p_ctd1_0p_ctj1_0p_cQu1_0p_cQd1_0p'>set param_card smeft 15 0.0 # orig: 1e-11
set param_card smeft 38 0.0 # orig: 7.1e-11
set param_card smeft 40 0.0 # orig: 1.7e-11
set param_card smeft 41 0.0 # orig: 1.5e-11
set param_card smeft 43 0.0 # orig: 1.6e-11
set param_card smeft 49 0.0 # orig: 2.6e-11
set param_card smeft 58 0.0 # orig: 2.7e-11
set param_card smeft 62 0.0 # orig: 2.2e-11
set param_card smeft 67 0.0 # orig: 2.8e-11
set param_card smeft 69 1.0 # orig: 2.4e-11
set param_card smeft 70 0.0 # orig: 7.3e-11
set param_card smeft 71 1.0 # orig: 7.2e-11
set param_card smeft 76 0.0 # orig: 2.9e-11
set param_card smeft 77 0.0 # orig: 2.5e-11
</weight>
<weight id='ctGRe_0p_cQj18_0p_cQj38_0p_cQj11_0p_cjj31_0p_ctu8_0p_ctd8_0p_ctj8_1p_cQu8_0p_cQd8_1p_ctu1_0p_ctd1_0p_ctj1_0p_cQu1_0p_cQd1_0p'>set param_card smeft 15 0.0 # orig: 1e-11
set param_card smeft 38 0.0 # orig: 7.1e-11
set param_card smeft 40 0.0 # orig: 1.7e-11
set param_card smeft 41 0.0 # orig: 1.5e-11
set param_card smeft 43 0.0 # orig: 1.6e-11
set param_card smeft 49 0.0 # orig: 2.6e-11
set param_card smeft 58 0.0 # orig: 2.7e-11
set param_card smeft 62 0.0 # orig: 2.2e-11
set param_card smeft 67 0.0 # orig: 2.8e-11
set param_card smeft 69 0.0 # orig: 2.4e-11
set param_card smeft 70 0.0 # orig: 7.3e-11
set param_card smeft 71 1.0 # orig: 7.2e-11
set param_card smeft 76 0.0 # orig: 2.9e-11
set param_card smeft 77 1.0 # orig: 2.5e-11
</weight>
<weight id='ctGRe_0p_cQj18_0p_cQj38_0p_cQj11_0p_cjj31_0p_ctu8_0p_ctd8_0p_ctj8_1p_cQu8_0p_cQd8_0p_ctu1_1p_ctd1_0p_ctj1_0p_cQu1_0p_cQd1_0p'>set param_card smeft 15 0.0 # orig: 1e-11
set param_card smeft 38 0.0 # orig: 7.1e-11
set param_card smeft 40 0.0 # orig: 1.7e-11
set param_card smeft 41 0.0 # orig: 1.5e-11
set param_card smeft 43 0.0 # orig: 1.6e-11
set param_card smeft 49 1.0 # orig: 2.6e-11
set param_card smeft 58 0.0 # orig: 2.7e-11
set param_card smeft 62 0.0 # orig: 2.2e-11
set param_card smeft 67 0.0 # orig: 2.8e-11
set param_card smeft 69 0.0 # orig: 2.4e-11
set param_card smeft 70 0.0 # orig: 7.3e-11
set param_card smeft 71 1.0 # orig: 7.2e-11
set param_card smeft 76 0.0 # orig: 2.9e-11
set param_card smeft 77 0.0 # orig: 2.5e-11
</weight>
<weight id='ctGRe_0p_cQj18_0p_cQj38_0p_cQj11_0p_cjj31_0p_ctu8_0p_ctd8_0p_ctj8_1p_cQu8_0p_cQd8_0p_ctu1_0p_ctd1_1p_ctj1_0p_cQu1_0p_cQd1_0p'>set param_card smeft 15 0.0 # orig: 1e-11
set param_card smeft 38 0.0 # orig: 7.1e-11
set param_card smeft 40 0.0 # orig: 1.7e-11
set param_card smeft 41 0.0 # orig: 1.5e-11
set param_card smeft 43 0.0 # orig: 1.6e-11
set param_card smeft 49 0.0 # orig: 2.6e-11
set param_card smeft 58 1.0 # orig: 2.7e-11
set param_card smeft 62 0.0 # orig: 2.2e-11
set param_card smeft 67 0.0 # orig: 2.8e-11
set param_card smeft 69 0.0 # orig: 2.4e-11
set param_card smeft 70 0.0 # orig: 7.3e-11
set param_card smeft 71 1.0 # orig: 7.2e-11
set param_card smeft 76 0.0 # orig: 2.9e-11
set param_card smeft 77 0.0 # orig: 2.5e-11
</weight>
<weight id='ctGRe_0p_cQj18_0p_cQj38_0p_cQj11_0p_cjj31_0p_ctu8_0p_ctd8_0p_ctj8_1p_cQu8_0p_cQd8_0p_ctu1_0p_ctd1_0p_ctj1_1p_cQu1_0p_cQd1_0p'>set param_card smeft 15 0.0 # orig: 1e-11
set param_card smeft 38 0.0 # orig: 7.1e-11
set param_card smeft 40 0.0 # orig: 1.7e-11
set param_card smeft 41 0.0 # orig: 1.5e-11
set param_card smeft 43 0.0 # orig: 1.6e-11
set param_card smeft 49 0.0 # orig: 2.6e-11
set param_card smeft 58 0.0 # orig: 2.7e-11
set param_card smeft 62 0.0 # orig: 2.2e-11
set param_card smeft 67 0.0 # orig: 2.8e-11
set param_card smeft 69 0.0 # orig: 2.4e-11
set param_card smeft 70 1.0 # orig: 7.3e-11
set param_card smeft 71 1.0 # orig: 7.2e-11
set param_card smeft 76 0.0 # orig: 2.9e-11
set param_card smeft 77 0.0 # orig: 2.5e-11
</weight>
<weight id='ctGRe_0p_cQj18_0p_cQj38_0p_cQj11_0p_cjj31_0p_ctu8_0p_ctd8_0p_ctj8_1p_cQu8_0p_cQd8_0p_ctu1_0p_ctd1_0p_ctj1_0p_cQu1_1p_cQd1_0p'>set param_card smeft 15 0.0 # orig: 1e-11
set param_card smeft 38 0.0 # orig: 7.1e-11
set param_card smeft 40 0.0 # orig: 1.7e-11
set param_card smeft 41 0.0 # orig: 1.5e-11
set param_card smeft 43 0.0 # orig: 1.6e-11
set param_card smeft 49 0.0 # orig: 2.6e-11
set param_card smeft 58 0.0 # orig: 2.7e-11
set param_card smeft 62 0.0 # orig: 2.2e-11
set param_card smeft 67 1.0 # orig: 2.8e-11
set param_card smeft 69 0.0 # orig: 2.4e-11
set param_card smeft 70 0.0 # orig: 7.3e-11
set param_card smeft 71 1.0 # orig: 7.2e-11
set param_card smeft 76 0.0 # orig: 2.9e-11
set param_card smeft 77 0.0 # orig: 2.5e-11
</weight>
<weight id='ctGRe_0p_cQj18_0p_cQj38_0p_cQj11_0p_cjj31_0p_ctu8_0p_ctd8_0p_ctj8_1p_cQu8_0p_cQd8_0p_ctu1_0p_ctd1_0p_ctj1_0p_cQu1_0p_cQd1_1p'>set param_card smeft 15 0.0 # orig: 1e-11
set param_card smeft 38 0.0 # orig: 7.1e-11
set param_card smeft 40 0.0 # orig: 1.7e-11
set param_card smeft 41 0.0 # orig: 1.5e-11
set param_card smeft 43 0.0 # orig: 1.6e-11
set param_card smeft 49 0.0 # orig: 2.6e-11
set param_card smeft 58 0.0 # orig: 2.7e-11
set param_card smeft 62 0.0 # orig: 2.2e-11
set param_card smeft 67 0.0 # orig: 2.8e-11
set param_card smeft 69 0.0 # orig: 2.4e-11
set param_card smeft 70 0.0 # orig: 7.3e-11
set param_card smeft 71 1.0 # orig: 7.2e-11
set param_card smeft 76 1.0 # orig: 2.9e-11
set param_card smeft 77 0.0 # orig: 2.5e-11
</weight>
<weight id='ctGRe_0p_cQj18_0p_cQj38_0p_cQj11_0p_cjj31_0p_ctu8_0p_ctd8_0p_ctj8_0p_cQu8_2p_cQd8_0p_ctu1_0p_ctd1_0p_ctj1_0p_cQu1_0p_cQd1_0p'>set param_card smeft 15 0.0 # orig: 1e-11
set param_card smeft 38 0.0 # orig: 7.1e-11
set param_card smeft 40 0.0 # orig: 1.7e-11
set param_card smeft 41 0.0 # orig: 1.5e-11
set param_card smeft 43 0.0 # orig: 1.6e-11
set param_card smeft 49 0.0 # orig: 2.6e-11
set param_card smeft 58 0.0 # orig: 2.7e-11
set param_card smeft 62 0.0 # orig: 2.2e-11
set param_card smeft 67 0.0 # orig: 2.8e-11
set param_card smeft 69 2.0 # orig: 2.4e-11
set param_card smeft 70 0.0 # orig: 7.3e-11
set param_card smeft 71 0.0 # orig: 7.2e-11
set param_card smeft 76 0.0 # orig: 2.9e-11
set param_card smeft 77 0.0 # orig: 2.5e-11
</weight>
<weight id='ctGRe_0p_cQj18_0p_cQj38_0p_cQj11_0p_cjj31_0p_ctu8_0p_ctd8_0p_ctj8_0p_cQu8_1p_cQd8_1p_ctu1_0p_ctd1_0p_ctj1_0p_cQu1_0p_cQd1_0p'>set param_card smeft 15 0.0 # orig: 1e-11
set param_card smeft 38 0.0 # orig: 7.1e-11
set param_card smeft 40 0.0 # orig: 1.7e-11
set param_card smeft 41 0.0 # orig: 1.5e-11
set param_card smeft 43 0.0 # orig: 1.6e-11
set param_card smeft 49 0.0 # orig: 2.6e-11
set param_card smeft 58 0.0 # orig: 2.7e-11
set param_card smeft 62 0.0 # orig: 2.2e-11
set param_card smeft 67 0.0 # orig: 2.8e-11
set param_card smeft 69 1.0 # orig: 2.4e-11
set param_card smeft 70 0.0 # orig: 7.3e-11
set param_card smeft 71 0.0 # orig: 7.2e-11
set param_card smeft 76 0.0 # orig: 2.9e-11
set param_card smeft 77 1.0 # orig: 2.5e-11
</weight>
<weight id='ctGRe_0p_cQj18_0p_cQj38_0p_cQj11_0p_cjj31_0p_ctu8_0p_ctd8_0p_ctj8_0p_cQu8_1p_cQd8_0p_ctu1_1p_ctd1_0p_ctj1_0p_cQu1_0p_cQd1_0p'>set param_card smeft 15 0.0 # orig: 1e-11
set param_card smeft 38 0.0 # orig: 7.1e-11
set param_card smeft 40 0.0 # orig: 1.7e-11
set param_card smeft 41 0.0 # orig: 1.5e-11
set param_card smeft 43 0.0 # orig: 1.6e-11
set param_card smeft 49 1.0 # orig: 2.6e-11
set param_card smeft 58 0.0 # orig: 2.7e-11
set param_card smeft 62 0.0 # orig: 2.2e-11
set param_card smeft 67 0.0 # orig: 2.8e-11
set param_card smeft 69 1.0 # orig: 2.4e-11
set param_card smeft 70 0.0 # orig: 7.3e-11
set param_card smeft 71 0.0 # orig: 7.2e-11
set param_card smeft 76 0.0 # orig: 2.9e-11
set param_card smeft 77 0.0 # orig: 2.5e-11
</weight>
<weight id='ctGRe_0p_cQj18_0p_cQj38_0p_cQj11_0p_cjj31_0p_ctu8_0p_ctd8_0p_ctj8_0p_cQu8_1p_cQd8_0p_ctu1_0p_ctd1_1p_ctj1_0p_cQu1_0p_cQd1_0p'>set param_card smeft 15 0.0 # orig: 1e-11
set param_card smeft 38 0.0 # orig: 7.1e-11
set param_card smeft 40 0.0 # orig: 1.7e-11
set param_card smeft 41 0.0 # orig: 1.5e-11
set param_card smeft 43 0.0 # orig: 1.6e-11
set param_card smeft 49 0.0 # orig: 2.6e-11
set param_card smeft 58 1.0 # orig: 2.7e-11
set param_card smeft 62 0.0 # orig: 2.2e-11
set param_card smeft 67 0.0 # orig: 2.8e-11
set param_card smeft 69 1.0 # orig: 2.4e-11
set param_card smeft 70 0.0 # orig: 7.3e-11
set param_card smeft 71 0.0 # orig: 7.2e-11
set param_card smeft 76 0.0 # orig: 2.9e-11
set param_card smeft 77 0.0 # orig: 2.5e-11
</weight>
<weight id='ctGRe_0p_cQj18_0p_cQj38_0p_cQj11_0p_cjj31_0p_ctu8_0p_ctd8_0p_ctj8_0p_cQu8_1p_cQd8_0p_ctu1_0p_ctd1_0p_ctj1_1p_cQu1_0p_cQd1_0p'>set param_card smeft 15 0.0 # orig: 1e-11
set param_card smeft 38 0.0 # orig: 7.1e-11
set param_card smeft 40 0.0 # orig: 1.7e-11
set param_card smeft 41 0.0 # orig: 1.5e-11
set param_card smeft 43 0.0 # orig: 1.6e-11
set param_card smeft 49 0.0 # orig: 2.6e-11
set param_card smeft 58 0.0 # orig: 2.7e-11
set param_card smeft 62 0.0 # orig: 2.2e-11
set param_card smeft 67 0.0 # orig: 2.8e-11
set param_card smeft 69 1.0 # orig: 2.4e-11
set param_card smeft 70 1.0 # orig: 7.3e-11
set param_card smeft 71 0.0 # orig: 7.2e-11
set param_card smeft 76 0.0 # orig: 2.9e-11
set param_card smeft 77 0.0 # orig: 2.5e-11
</weight>
<weight id='ctGRe_0p_cQj18_0p_cQj38_0p_cQj11_0p_cjj31_0p_ctu8_0p_ctd8_0p_ctj8_0p_cQu8_1p_cQd8_0p_ctu1_0p_ctd1_0p_ctj1_0p_cQu1_1p_cQd1_0p'>set param_card smeft 15 0.0 # orig: 1e-11
set param_card smeft 38 0.0 # orig: 7.1e-11
set param_card smeft 40 0.0 # orig: 1.7e-11
set param_card smeft 41 0.0 # orig: 1.5e-11
set param_card smeft 43 0.0 # orig: 1.6e-11
set param_card smeft 49 0.0 # orig: 2.6e-11
set param_card smeft 58 0.0 # orig: 2.7e-11
set param_card smeft 62 0.0 # orig: 2.2e-11
set param_card smeft 67 1.0 # orig: 2.8e-11
set param_card smeft 69 1.0 # orig: 2.4e-11
set param_card smeft 70 0.0 # orig: 7.3e-11
set param_card smeft 71 0.0 # orig: 7.2e-11
set param_card smeft 76 0.0 # orig: 2.9e-11
set param_card smeft 77 0.0 # orig: 2.5e-11
</weight>
<weight id='ctGRe_0p_cQj18_0p_cQj38_0p_cQj11_0p_cjj31_0p_ctu8_0p_ctd8_0p_ctj8_0p_cQu8_1p_cQd8_0p_ctu1_0p_ctd1_0p_ctj1_0p_cQu1_0p_cQd1_1p'>set param_card smeft 15 0.0 # orig: 1e-11
set param_card smeft 38 0.0 # orig: 7.1e-11
set param_card smeft 40 0.0 # orig: 1.7e-11
set param_card smeft 41 0.0 # orig: 1.5e-11
set param_card smeft 43 0.0 # orig: 1.6e-11
set param_card smeft 49 0.0 # orig: 2.6e-11
set param_card smeft 58 0.0 # orig: 2.7e-11
set param_card smeft 62 0.0 # orig: 2.2e-11
set param_card smeft 67 0.0 # orig: 2.8e-11
set param_card smeft 69 1.0 # orig: 2.4e-11
set param_card smeft 70 0.0 # orig: 7.3e-11
set param_card smeft 71 0.0 # orig: 7.2e-11
set param_card smeft 76 1.0 # orig: 2.9e-11
set param_card smeft 77 0.0 # orig: 2.5e-11
</weight>
<weight id='ctGRe_0p_cQj18_0p_cQj38_0p_cQj11_0p_cjj31_0p_ctu8_0p_ctd8_0p_ctj8_0p_cQu8_0p_cQd8_2p_ctu1_0p_ctd1_0p_ctj1_0p_cQu1_0p_cQd1_0p'>set param_card smeft 15 0.0 # orig: 1e-11
set param_card smeft 38 0.0 # orig: 7.1e-11
set param_card smeft 40 0.0 # orig: 1.7e-11
set param_card smeft 41 0.0 # orig: 1.5e-11
set param_card smeft 43 0.0 # orig: 1.6e-11
set param_card smeft 49 0.0 # orig: 2.6e-11
set param_card smeft 58 0.0 # orig: 2.7e-11
set param_card smeft 62 0.0 # orig: 2.2e-11
set param_card smeft 67 0.0 # orig: 2.8e-11
set param_card smeft 69 0.0 # orig: 2.4e-11
set param_card smeft 70 0.0 # orig: 7.3e-11
set param_card smeft 71 0.0 # orig: 7.2e-11
set param_card smeft 76 0.0 # orig: 2.9e-11
set param_card smeft 77 2.0 # orig: 2.5e-11
</weight>
<weight id='ctGRe_0p_cQj18_0p_cQj38_0p_cQj11_0p_cjj31_0p_ctu8_0p_ctd8_0p_ctj8_0p_cQu8_0p_cQd8_1p_ctu1_1p_ctd1_0p_ctj1_0p_cQu1_0p_cQd1_0p'>set param_card smeft 15 0.0 # orig: 1e-11
set param_card smeft 38 0.0 # orig: 7.1e-11
set param_card smeft 40 0.0 # orig: 1.7e-11
set param_card smeft 41 0.0 # orig: 1.5e-11
set param_card smeft 43 0.0 # orig: 1.6e-11
set param_card smeft 49 1.0 # orig: 2.6e-11
set param_card smeft 58 0.0 # orig: 2.7e-11
set param_card smeft 62 0.0 # orig: 2.2e-11
set param_card smeft 67 0.0 # orig: 2.8e-11
set param_card smeft 69 0.0 # orig: 2.4e-11
set param_card smeft 70 0.0 # orig: 7.3e-11
set param_card smeft 71 0.0 # orig: 7.2e-11
set param_card smeft 76 0.0 # orig: 2.9e-11
set param_card smeft 77 1.0 # orig: 2.5e-11
</weight>
<weight id='ctGRe_0p_cQj18_0p_cQj38_0p_cQj11_0p_cjj31_0p_ctu8_0p_ctd8_0p_ctj8_0p_cQu8_0p_cQd8_1p_ctu1_0p_ctd1_1p_ctj1_0p_cQu1_0p_cQd1_0p'>set param_card smeft 15 0.0 # orig: 1e-11
set param_card smeft 38 0.0 # orig: 7.1e-11
set param_card smeft 40 0.0 # orig: 1.7e-11
set param_card smeft 41 0.0 # orig: 1.5e-11
set param_card smeft 43 0.0 # orig: 1.6e-11
set param_card smeft 49 0.0 # orig: 2.6e-11
set param_card smeft 58 1.0 # orig: 2.7e-11
set param_card smeft 62 0.0 # orig: 2.2e-11
set param_card smeft 67 0.0 # orig: 2.8e-11
set param_card smeft 69 0.0 # orig: 2.4e-11
set param_card smeft 70 0.0 # orig: 7.3e-11
set param_card smeft 71 0.0 # orig: 7.2e-11
set param_card smeft 76 0.0 # orig: 2.9e-11
set param_card smeft 77 1.0 # orig: 2.5e-11
</weight>
<weight id='ctGRe_0p_cQj18_0p_cQj38_0p_cQj11_0p_cjj31_0p_ctu8_0p_ctd8_0p_ctj8_0p_cQu8_0p_cQd8_1p_ctu1_0p_ctd1_0p_ctj1_1p_cQu1_0p_cQd1_0p'>set param_card smeft 15 0.0 # orig: 1e-11
set param_card smeft 38 0.0 # orig: 7.1e-11
set param_card smeft 40 0.0 # orig: 1.7e-11
set param_card smeft 41 0.0 # orig: 1.5e-11
set param_card smeft 43 0.0 # orig: 1.6e-11
set param_card smeft 49 0.0 # orig: 2.6e-11
set param_card smeft 58 0.0 # orig: 2.7e-11
set param_card smeft 62 0.0 # orig: 2.2e-11
set param_card smeft 67 0.0 # orig: 2.8e-11
set param_card smeft 69 0.0 # orig: 2.4e-11
set param_card smeft 70 1.0 # orig: 7.3e-11
set param_card smeft 71 0.0 # orig: 7.2e-11
set param_card smeft 76 0.0 # orig: 2.9e-11
set param_card smeft 77 1.0 # orig: 2.5e-11
</weight>
<weight id='ctGRe_0p_cQj18_0p_cQj38_0p_cQj11_0p_cjj31_0p_ctu8_0p_ctd8_0p_ctj8_0p_cQu8_0p_cQd8_1p_ctu1_0p_ctd1_0p_ctj1_0p_cQu1_1p_cQd1_0p'>set param_card smeft 15 0.0 # orig: 1e-11
set param_card smeft 38 0.0 # orig: 7.1e-11
set param_card smeft 40 0.0 # orig: 1.7e-11
set param_card smeft 41 0.0 # orig: 1.5e-11
set param_card smeft 43 0.0 # orig: 1.6e-11
set param_card smeft 49 0.0 # orig: 2.6e-11
set param_card smeft 58 0.0 # orig: 2.7e-11
set param_card smeft 62 0.0 # orig: 2.2e-11
set param_card smeft 67 1.0 # orig: 2.8e-11
set param_card smeft 69 0.0 # orig: 2.4e-11
set param_card smeft 70 0.0 # orig: 7.3e-11
set param_card smeft 71 0.0 # orig: 7.2e-11
set param_card smeft 76 0.0 # orig: 2.9e-11
set param_card smeft 77 1.0 # orig: 2.5e-11
</weight>
<weight id='ctGRe_0p_cQj18_0p_cQj38_0p_cQj11_0p_cjj31_0p_ctu8_0p_ctd8_0p_ctj8_0p_cQu8_0p_cQd8_1p_ctu1_0p_ctd1_0p_ctj1_0p_cQu1_0p_cQd1_1p'>set param_card smeft 15 0.0 # orig: 1e-11
set param_card smeft 38 0.0 # orig: 7.1e-11
set param_card smeft 40 0.0 # orig: 1.7e-11
set param_card smeft 41 0.0 # orig: 1.5e-11
set param_card smeft 43 0.0 # orig: 1.6e-11
set param_card smeft 49 0.0 # orig: 2.6e-11
set param_card smeft 58 0.0 # orig: 2.7e-11
set param_card smeft 62 0.0 # orig: 2.2e-11
set param_card smeft 67 0.0 # orig: 2.8e-11
set param_card smeft 69 0.0 # orig: 2.4e-11
set param_card smeft 70 0.0 # orig: 7.3e-11
set param_card smeft 71 0.0 # orig: 7.2e-11
set param_card smeft 76 1.0 # orig: 2.9e-11
set param_card smeft 77 1.0 # orig: 2.5e-11
</weight>
<weight id='ctGRe_0p_cQj18_0p_cQj38_0p_cQj11_0p_cjj31_0p_ctu8_0p_ctd8_0p_ctj8_0p_cQu8_0p_cQd8_0p_ctu1_2p_ctd1_0p_ctj1_0p_cQu1_0p_cQd1_0p'>set param_card smeft 15 0.0 # orig: 1e-11
set param_card smeft 38 0.0 # orig: 7.1e-11
set param_card smeft 40 0.0 # orig: 1.7e-11
set param_card smeft 41 0.0 # orig: 1.5e-11
set param_card smeft 43 0.0 # orig: 1.6e-11
set param_card smeft 49 2.0 # orig: 2.6e-11
set param_card smeft 58 0.0 # orig: 2.7e-11
set param_card smeft 62 0.0 # orig: 2.2e-11
set param_card smeft 67 0.0 # orig: 2.8e-11
set param_card smeft 69 0.0 # orig: 2.4e-11
set param_card smeft 70 0.0 # orig: 7.3e-11
set param_card smeft 71 0.0 # orig: 7.2e-11
set param_card smeft 76 0.0 # orig: 2.9e-11
set param_card smeft 77 0.0 # orig: 2.5e-11
</weight>
<weight id='ctGRe_0p_cQj18_0p_cQj38_0p_cQj11_0p_cjj31_0p_ctu8_0p_ctd8_0p_ctj8_0p_cQu8_0p_cQd8_0p_ctu1_1p_ctd1_1p_ctj1_0p_cQu1_0p_cQd1_0p'>set param_card smeft 15 0.0 # orig: 1e-11
set param_card smeft 38 0.0 # orig: 7.1e-11
set param_card smeft 40 0.0 # orig: 1.7e-11
set param_card smeft 41 0.0 # orig: 1.5e-11
set param_card smeft 43 0.0 # orig: 1.6e-11
set param_card smeft 49 1.0 # orig: 2.6e-11
set param_card smeft 58 1.0 # orig: 2.7e-11
set param_card smeft 62 0.0 # orig: 2.2e-11
set param_card smeft 67 0.0 # orig: 2.8e-11
set param_card smeft 69 0.0 # orig: 2.4e-11
set param_card smeft 70 0.0 # orig: 7.3e-11
set param_card smeft 71 0.0 # orig: 7.2e-11
set param_card smeft 76 0.0 # orig: 2.9e-11
set param_card smeft 77 0.0 # orig: 2.5e-11
</weight>
<weight id='ctGRe_0p_cQj18_0p_cQj38_0p_cQj11_0p_cjj31_0p_ctu8_0p_ctd8_0p_ctj8_0p_cQu8_0p_cQd8_0p_ctu1_1p_ctd1_0p_ctj1_1p_cQu1_0p_cQd1_0p'>set param_card smeft 15 0.0 # orig: 1e-11
set param_card smeft 38 0.0 # orig: 7.1e-11
set param_card smeft 40 0.0 # orig: 1.7e-11
set param_card smeft 41 0.0 # orig: 1.5e-11
set param_card smeft 43 0.0 # orig: 1.6e-11
set param_card smeft 49 1.0 # orig: 2.6e-11
set param_card smeft 58 0.0 # orig: 2.7e-11
set param_card smeft 62 0.0 # orig: 2.2e-11
set param_card smeft 67 0.0 # orig: 2.8e-11
set param_card smeft 69 0.0 # orig: 2.4e-11
set param_card smeft 70 1.0 # orig: 7.3e-11
set param_card smeft 71 0.0 # orig: 7.2e-11
set param_card smeft 76 0.0 # orig: 2.9e-11
set param_card smeft 77 0.0 # orig: 2.5e-11
</weight>
<weight id='ctGRe_0p_cQj18_0p_cQj38_0p_cQj11_0p_cjj31_0p_ctu8_0p_ctd8_0p_ctj8_0p_cQu8_0p_cQd8_0p_ctu1_1p_ctd1_0p_ctj1_0p_cQu1_1p_cQd1_0p'>set param_card smeft 15 0.0 # orig: 1e-11
set param_card smeft 38 0.0 # orig: 7.1e-11
set param_card smeft 40 0.0 # orig: 1.7e-11
set param_card smeft 41 0.0 # orig: 1.5e-11
set param_card smeft 43 0.0 # orig: 1.6e-11
set param_card smeft 49 1.0 # orig: 2.6e-11
set param_card smeft 58 0.0 # orig: 2.7e-11
set param_card smeft 62 0.0 # orig: 2.2e-11
set param_card smeft 67 1.0 # orig: 2.8e-11
set param_card smeft 69 0.0 # orig: 2.4e-11
set param_card smeft 70 0.0 # orig: 7.3e-11
set param_card smeft 71 0.0 # orig: 7.2e-11
set param_card smeft 76 0.0 # orig: 2.9e-11
set param_card smeft 77 0.0 # orig: 2.5e-11
</weight>
<weight id='ctGRe_0p_cQj18_0p_cQj38_0p_cQj11_0p_cjj31_0p_ctu8_0p_ctd8_0p_ctj8_0p_cQu8_0p_cQd8_0p_ctu1_1p_ctd1_0p_ctj1_0p_cQu1_0p_cQd1_1p'>set param_card smeft 15 0.0 # orig: 1e-11
set param_card smeft 38 0.0 # orig: 7.1e-11
set param_card smeft 40 0.0 # orig: 1.7e-11
set param_card smeft 41 0.0 # orig: 1.5e-11
set param_card smeft 43 0.0 # orig: 1.6e-11
set param_card smeft 49 1.0 # orig: 2.6e-11
set param_card smeft 58 0.0 # orig: 2.7e-11
set param_card smeft 62 0.0 # orig: 2.2e-11
set param_card smeft 67 0.0 # orig: 2.8e-11
set param_card smeft 69 0.0 # orig: 2.4e-11
set param_card smeft 70 0.0 # orig: 7.3e-11
set param_card smeft 71 0.0 # orig: 7.2e-11
set param_card smeft 76 1.0 # orig: 2.9e-11
set param_card smeft 77 0.0 # orig: 2.5e-11
</weight>
<weight id='ctGRe_0p_cQj18_0p_cQj38_0p_cQj11_0p_cjj31_0p_ctu8_0p_ctd8_0p_ctj8_0p_cQu8_0p_cQd8_0p_ctu1_0p_ctd1_2p_ctj1_0p_cQu1_0p_cQd1_0p'>set param_card smeft 15 0.0 # orig: 1e-11
set param_card smeft 38 0.0 # orig: 7.1e-11
set param_card smeft 40 0.0 # orig: 1.7e-11
set param_card smeft 41 0.0 # orig: 1.5e-11
set param_card smeft 43 0.0 # orig: 1.6e-11
set param_card smeft 49 0.0 # orig: 2.6e-11
set param_card smeft 58 2.0 # orig: 2.7e-11
set param_card smeft 62 0.0 # orig: 2.2e-11
set param_card smeft 67 0.0 # orig: 2.8e-11
set param_card smeft 69 0.0 # orig: 2.4e-11
set param_card smeft 70 0.0 # orig: 7.3e-11
set param_card smeft 71 0.0 # orig: 7.2e-11
set param_card smeft 76 0.0 # orig: 2.9e-11
set param_card smeft 77 0.0 # orig: 2.5e-11
</weight>
<weight id='ctGRe_0p_cQj18_0p_cQj38_0p_cQj11_0p_cjj31_0p_ctu8_0p_ctd8_0p_ctj8_0p_cQu8_0p_cQd8_0p_ctu1_0p_ctd1_1p_ctj1_1p_cQu1_0p_cQd1_0p'>set param_card smeft 15 0.0 # orig: 1e-11
set param_card smeft 38 0.0 # orig: 7.1e-11
set param_card smeft 40 0.0 # orig: 1.7e-11
set param_card smeft 41 0.0 # orig: 1.5e-11
set param_card smeft 43 0.0 # orig: 1.6e-11
set param_card smeft 49 0.0 # orig: 2.6e-11
set param_card smeft 58 1.0 # orig: 2.7e-11
set param_card smeft 62 0.0 # orig: 2.2e-11
set param_card smeft 67 0.0 # orig: 2.8e-11
set param_card smeft 69 0.0 # orig: 2.4e-11
set param_card smeft 70 1.0 # orig: 7.3e-11
set param_card smeft 71 0.0 # orig: 7.2e-11
set param_card smeft 76 0.0 # orig: 2.9e-11
set param_card smeft 77 0.0 # orig: 2.5e-11
</weight>
<weight id='ctGRe_0p_cQj18_0p_cQj38_0p_cQj11_0p_cjj31_0p_ctu8_0p_ctd8_0p_ctj8_0p_cQu8_0p_cQd8_0p_ctu1_0p_ctd1_1p_ctj1_0p_cQu1_1p_cQd1_0p'>set param_card smeft 15 0.0 # orig: 1e-11
set param_card smeft 38 0.0 # orig: 7.1e-11
set param_card smeft 40 0.0 # orig: 1.7e-11
set param_card smeft 41 0.0 # orig: 1.5e-11
set param_card smeft 43 0.0 # orig: 1.6e-11
set param_card smeft 49 0.0 # orig: 2.6e-11
set param_card smeft 58 1.0 # orig: 2.7e-11
set param_card smeft 62 0.0 # orig: 2.2e-11
set param_card smeft 67 1.0 # orig: 2.8e-11
set param_card smeft 69 0.0 # orig: 2.4e-11
set param_card smeft 70 0.0 # orig: 7.3e-11
set param_card smeft 71 0.0 # orig: 7.2e-11
set param_card smeft 76 0.0 # orig: 2.9e-11
set param_card smeft 77 0.0 # orig: 2.5e-11
</weight>
<weight id='ctGRe_0p_cQj18_0p_cQj38_0p_cQj11_0p_cjj31_0p_ctu8_0p_ctd8_0p_ctj8_0p_cQu8_0p_cQd8_0p_ctu1_0p_ctd1_1p_ctj1_0p_cQu1_0p_cQd1_1p'>set param_card smeft 15 0.0 # orig: 1e-11
set param_card smeft 38 0.0 # orig: 7.1e-11
set param_card smeft 40 0.0 # orig: 1.7e-11
set param_card smeft 41 0.0 # orig: 1.5e-11
set param_card smeft 43 0.0 # orig: 1.6e-11
set param_card smeft 49 0.0 # orig: 2.6e-11
set param_card smeft 58 1.0 # orig: 2.7e-11
set param_card smeft 62 0.0 # orig: 2.2e-11
set param_card smeft 67 0.0 # orig: 2.8e-11
set param_card smeft 69 0.0 # orig: 2.4e-11
set param_card smeft 70 0.0 # orig: 7.3e-11
set param_card smeft 71 0.0 # orig: 7.2e-11
set param_card smeft 76 1.0 # orig: 2.9e-11
set param_card smeft 77 0.0 # orig: 2.5e-11
</weight>
<weight id='ctGRe_0p_cQj18_0p_cQj38_0p_cQj11_0p_cjj31_0p_ctu8_0p_ctd8_0p_ctj8_0p_cQu8_0p_cQd8_0p_ctu1_0p_ctd1_0p_ctj1_2p_cQu1_0p_cQd1_0p'>set param_card smeft 15 0.0 # orig: 1e-11
set param_card smeft 38 0.0 # orig: 7.1e-11
set param_card smeft 40 0.0 # orig: 1.7e-11
set param_card smeft 41 0.0 # orig: 1.5e-11
set param_card smeft 43 0.0 # orig: 1.6e-11
set param_card smeft 49 0.0 # orig: 2.6e-11
set param_card smeft 58 0.0 # orig: 2.7e-11
set param_card smeft 62 0.0 # orig: 2.2e-11
set param_card smeft 67 0.0 # orig: 2.8e-11
set param_card smeft 69 0.0 # orig: 2.4e-11
set param_card smeft 70 2.0 # orig: 7.3e-11
set param_card smeft 71 0.0 # orig: 7.2e-11
set param_card smeft 76 0.0 # orig: 2.9e-11
set param_card smeft 77 0.0 # orig: 2.5e-11
</weight>
<weight id='ctGRe_0p_cQj18_0p_cQj38_0p_cQj11_0p_cjj31_0p_ctu8_0p_ctd8_0p_ctj8_0p_cQu8_0p_cQd8_0p_ctu1_0p_ctd1_0p_ctj1_1p_cQu1_1p_cQd1_0p'>set param_card smeft 15 0.0 # orig: 1e-11
set param_card smeft 38 0.0 # orig: 7.1e-11
set param_card smeft 40 0.0 # orig: 1.7e-11
set param_card smeft 41 0.0 # orig: 1.5e-11
set param_card smeft 43 0.0 # orig: 1.6e-11
set param_card smeft 49 0.0 # orig: 2.6e-11
set param_card smeft 58 0.0 # orig: 2.7e-11
set param_card smeft 62 0.0 # orig: 2.2e-11
set param_card smeft 67 1.0 # orig: 2.8e-11
set param_card smeft 69 0.0 # orig: 2.4e-11
set param_card smeft 70 1.0 # orig: 7.3e-11
set param_card smeft 71 0.0 # orig: 7.2e-11
set param_card smeft 76 0.0 # orig: 2.9e-11
set param_card smeft 77 0.0 # orig: 2.5e-11
</weight>
<weight id='ctGRe_0p_cQj18_0p_cQj38_0p_cQj11_0p_cjj31_0p_ctu8_0p_ctd8_0p_ctj8_0p_cQu8_0p_cQd8_0p_ctu1_0p_ctd1_0p_ctj1_1p_cQu1_0p_cQd1_1p'>set param_card smeft 15 0.0 # orig: 1e-11
set param_card smeft 38 0.0 # orig: 7.1e-11
set param_card smeft 40 0.0 # orig: 1.7e-11
set param_card smeft 41 0.0 # orig: 1.5e-11
set param_card smeft 43 0.0 # orig: 1.6e-11
set param_card smeft 49 0.0 # orig: 2.6e-11
set param_card smeft 58 0.0 # orig: 2.7e-11
set param_card smeft 62 0.0 # orig: 2.2e-11
set param_card smeft 67 0.0 # orig: 2.8e-11
set param_card smeft 69 0.0 # orig: 2.4e-11
set param_card smeft 70 1.0 # orig: 7.3e-11
set param_card smeft 71 0.0 # orig: 7.2e-11
set param_card smeft 76 1.0 # orig: 2.9e-11
set param_card smeft 77 0.0 # orig: 2.5e-11
</weight>
<weight id='ctGRe_0p_cQj18_0p_cQj38_0p_cQj11_0p_cjj31_0p_ctu8_0p_ctd8_0p_ctj8_0p_cQu8_0p_cQd8_0p_ctu1_0p_ctd1_0p_ctj1_0p_cQu1_2p_cQd1_0p'>set param_card smeft 15 0.0 # orig: 1e-11
set param_card smeft 38 0.0 # orig: 7.1e-11
set param_card smeft 40 0.0 # orig: 1.7e-11
set param_card smeft 41 0.0 # orig: 1.5e-11
set param_card smeft 43 0.0 # orig: 1.6e-11
set param_card smeft 49 0.0 # orig: 2.6e-11
set param_card smeft 58 0.0 # orig: 2.7e-11
set param_card smeft 62 0.0 # orig: 2.2e-11
set param_card smeft 67 2.0 # orig: 2.8e-11
set param_card smeft 69 0.0 # orig: 2.4e-11
set param_card smeft 70 0.0 # orig: 7.3e-11
set param_card smeft 71 0.0 # orig: 7.2e-11
set param_card smeft 76 0.0 # orig: 2.9e-11
set param_card smeft 77 0.0 # orig: 2.5e-11
</weight>
<weight id='ctGRe_0p_cQj18_0p_cQj38_0p_cQj11_0p_cjj31_0p_ctu8_0p_ctd8_0p_ctj8_0p_cQu8_0p_cQd8_0p_ctu1_0p_ctd1_0p_ctj1_0p_cQu1_1p_cQd1_1p'>set param_card smeft 15 0.0 # orig: 1e-11
set param_card smeft 38 0.0 # orig: 7.1e-11
set param_card smeft 40 0.0 # orig: 1.7e-11
set param_card smeft 41 0.0 # orig: 1.5e-11
set param_card smeft 43 0.0 # orig: 1.6e-11
set param_card smeft 49 0.0 # orig: 2.6e-11
set param_card smeft 58 0.0 # orig: 2.7e-11
set param_card smeft 62 0.0 # orig: 2.2e-11
set param_card smeft 67 1.0 # orig: 2.8e-11
set param_card smeft 69 0.0 # orig: 2.4e-11
set param_card smeft 70 0.0 # orig: 7.3e-11
set param_card smeft 71 0.0 # orig: 7.2e-11
set param_card smeft 76 1.0 # orig: 2.9e-11
set param_card smeft 77 0.0 # orig: 2.5e-11
</weight>
<weight id='ctGRe_0p_cQj18_0p_cQj38_0p_cQj11_0p_cjj31_0p_ctu8_0p_ctd8_0p_ctj8_0p_cQu8_0p_cQd8_0p_ctu1_0p_ctd1_0p_ctj1_0p_cQu1_0p_cQd1_2p'>set param_card smeft 15 0.0 # orig: 1e-11
set param_card smeft 38 0.0 # orig: 7.1e-11
set param_card smeft 40 0.0 # orig: 1.7e-11
set param_card smeft 41 0.0 # orig: 1.5e-11
set param_card smeft 43 0.0 # orig: 1.6e-11
set param_card smeft 49 0.0 # orig: 2.6e-11
set param_card smeft 58 0.0 # orig: 2.7e-11
set param_card smeft 62 0.0 # orig: 2.2e-11
set param_card smeft 67 0.0 # orig: 2.8e-11
set param_card smeft 69 0.0 # orig: 2.4e-11
set param_card smeft 70 0.0 # orig: 7.3e-11
set param_card smeft 71 0.0 # orig: 7.2e-11
set param_card smeft 76 2.0 # orig: 2.9e-11
set param_card smeft 77 0.0 # orig: 2.5e-11
</weight>
</weightgroup>
<weight id="1001" MUR="1.0" MUF="1.0" PDF="325300" >  </weight>
<weightgroup name="Central scale variation" combine="envelope">
<weight id="1002" MUR="1.0" MUF="1.0" DYN_SCALE="1" PDF="325300" > dyn_scale_choice=sum pt  </weight>
<weight id="1003" MUR="1.0" MUF="1.0" DYN_SCALE="2" PDF="325300" > dyn_scale_choice=HT  </weight>
<weight id="1004" MUR="1.0" MUF="1.0" DYN_SCALE="3" PDF="325300" > dyn_scale_choice=HT/2  </weight>
<weight id="1005" MUR="1.0" MUF="1.0" DYN_SCALE="4" PDF="325300" > dyn_scale_choice=sqrts  </weight>
<weight id="1006" MUR="2.0" MUF="1.0" PDF="325300" > MUR=2.0  </weight>
<weight id="1007" MUR="2.0" MUF="1.0" DYN_SCALE="1" PDF="325300" > MUR=2.0 dyn_scale_choice=sum pt  </weight>
<weight id="1008" MUR="2.0" MUF="1.0" DYN_SCALE="2" PDF="325300" > MUR=2.0 dyn_scale_choice=HT  </weight>
<weight id="1009" MUR="2.0" MUF="1.0" DYN_SCALE="3" PDF="325300" > MUR=2.0 dyn_scale_choice=HT/2  </weight>
<weight id="1010" MUR="2.0" MUF="1.0" DYN_SCALE="4" PDF="325300" > MUR=2.0 dyn_scale_choice=sqrts  </weight>
<weight id="1011" MUR="0.5" MUF="1.0" PDF="325300" > MUR=0.5  </weight>
<weight id="1012" MUR="0.5" MUF="1.0" DYN_SCALE="1" PDF="325300" > MUR=0.5 dyn_scale_choice=sum pt  </weight>
<weight id="1013" MUR="0.5" MUF="1.0" DYN_SCALE="2" PDF="325300" > MUR=0.5 dyn_scale_choice=HT  </weight>
<weight id="1014" MUR="0.5" MUF="1.0" DYN_SCALE="3" PDF="325300" > MUR=0.5 dyn_scale_choice=HT/2  </weight>
<weight id="1015" MUR="0.5" MUF="1.0" DYN_SCALE="4" PDF="325300" > MUR=0.5 dyn_scale_choice=sqrts  </weight>
<weight id="1016" MUR="1.0" MUF="2.0" PDF="325300" > MUF=2.0  </weight>
<weight id="1017" MUR="1.0" MUF="2.0" DYN_SCALE="1" PDF="325300" > MUF=2.0 dyn_scale_choice=sum pt  </weight>
<weight id="1018" MUR="1.0" MUF="2.0" DYN_SCALE="2" PDF="325300" > MUF=2.0 dyn_scale_choice=HT  </weight>
<weight id="1019" MUR="1.0" MUF="2.0" DYN_SCALE="3" PDF="325300" > MUF=2.0 dyn_scale_choice=HT/2  </weight>
<weight id="1020" MUR="1.0" MUF="2.0" DYN_SCALE="4" PDF="325300" > MUF=2.0 dyn_scale_choice=sqrts  </weight>
<weight id="1021" MUR="2.0" MUF="2.0" PDF="325300" > MUR=2.0 MUF=2.0  </weight>
<weight id="1022" MUR="2.0" MUF="2.0" DYN_SCALE="1" PDF="325300" > MUR=2.0 MUF=2.0 dyn_scale_choice=sum pt  </weight>
<weight id="1023" MUR="2.0" MUF="2.0" DYN_SCALE="2" PDF="325300" > MUR=2.0 MUF=2.0 dyn_scale_choice=HT  </weight>
<weight id="1024" MUR="2.0" MUF="2.0" DYN_SCALE="3" PDF="325300" > MUR=2.0 MUF=2.0 dyn_scale_choice=HT/2  </weight>
<weight id="1025" MUR="2.0" MUF="2.0" DYN_SCALE="4" PDF="325300" > MUR=2.0 MUF=2.0 dyn_scale_choice=sqrts  </weight>
<weight id="1026" MUR="0.5" MUF="2.0" PDF="325300" > MUR=0.5 MUF=2.0  </weight>
<weight id="1027" MUR="0.5" MUF="2.0" DYN_SCALE="1" PDF="325300" > MUR=0.5 MUF=2.0 dyn_scale_choice=sum pt  </weight>
<weight id="1028" MUR="0.5" MUF="2.0" DYN_SCALE="2" PDF="325300" > MUR=0.5 MUF=2.0 dyn_scale_choice=HT  </weight>
<weight id="1029" MUR="0.5" MUF="2.0" DYN_SCALE="3" PDF="325300" > MUR=0.5 MUF=2.0 dyn_scale_choice=HT/2  </weight>
<weight id="1030" MUR="0.5" MUF="2.0" DYN_SCALE="4" PDF="325300" > MUR=0.5 MUF=2.0 dyn_scale_choice=sqrts  </weight>
<weight id="1031" MUR="1.0" MUF="0.5" PDF="325300" > MUF=0.5  </weight>
<weight id="1032" MUR="1.0" MUF="0.5" DYN_SCALE="1" PDF="325300" > MUF=0.5 dyn_scale_choice=sum pt  </weight>
<weight id="1033" MUR="1.0" MUF="0.5" DYN_SCALE="2" PDF="325300" > MUF=0.5 dyn_scale_choice=HT  </weight>
<weight id="1034" MUR="1.0" MUF="0.5" DYN_SCALE="3" PDF="325300" > MUF=0.5 dyn_scale_choice=HT/2  </weight>
<weight id="1035" MUR="1.0" MUF="0.5" DYN_SCALE="4" PDF="325300" > MUF=0.5 dyn_scale_choice=sqrts  </weight>
<weight id="1036" MUR="2.0" MUF="0.5" PDF="325300" > MUR=2.0 MUF=0.5  </weight>
<weight id="1037" MUR="2.0" MUF="0.5" DYN_SCALE="1" PDF="325300" > MUR=2.0 MUF=0.5 dyn_scale_choice=sum pt  </weight>
<weight id="1038" MUR="2.0" MUF="0.5" DYN_SCALE="2" PDF="325300" > MUR=2.0 MUF=0.5 dyn_scale_choice=HT  </weight>
<weight id="1039" MUR="2.0" MUF="0.5" DYN_SCALE="3" PDF="325300" > MUR=2.0 MUF=0.5 dyn_scale_choice=HT/2  </weight>
<weight id="1040" MUR="2.0" MUF="0.5" DYN_SCALE="4" PDF="325300" > MUR=2.0 MUF=0.5 dyn_scale_choice=sqrts  </weight>
<weight id="1041" MUR="0.5" MUF="0.5" PDF="325300" > MUR=0.5 MUF=0.5  </weight>
<weight id="1042" MUR="0.5" MUF="0.5" DYN_SCALE="1" PDF="325300" > MUR=0.5 MUF=0.5 dyn_scale_choice=sum pt  </weight>
<weight id="1043" MUR="0.5" MUF="0.5" DYN_SCALE="2" PDF="325300" > MUR=0.5 MUF=0.5 dyn_scale_choice=HT  </weight>
<weight id="1044" MUR="0.5" MUF="0.5" DYN_SCALE="3" PDF="325300" > MUR=0.5 MUF=0.5 dyn_scale_choice=HT/2  </weight>
<weight id="1045" MUR="0.5" MUF="0.5" DYN_SCALE="4" PDF="325300" > MUR=0.5 MUF=0.5 dyn_scale_choice=sqrts  </weight>
</weightgroup> # scale
<weightgroup name="Emission scale variation" combine="envelope">
<weight id="1046" MUR="1.0" MUF="1.0" ALPSFACT="0.5" PDF="325300" > alpsfact=0.5  </weight>
<weight id="1047" MUR="1.0" MUF="1.0" ALPSFACT="2.0" PDF="325300" > alpsfact=2.0  </weight>
</weightgroup> # ALPS
<weightgroup name="NNPDF31_nnlo_as_0118_mc_hessian_pdfas" combine="symmhessian+as"> # 325300: NNPDF3.1 NNLO global fit, alphas(MZ)=0.118. mem=0 ; average on replicas (setting negative replicas to zero); mem=1-100 ; PDF eig.; mem=101 ; central value (forced positive definite) Alphas(MZ)=0.116; mem=102 ; central value (forced positive definite) Alphas(MZ)=0.120
<weight id="1048" MUR="1.0" MUF="1.0" PDF="325300" >  </weight>
<weight id="1049" MUR="1.0" MUF="1.0" PDF="325301" > PDF=325300 MemberID=1 </weight>
<weight id="1050" MUR="1.0" MUF="1.0" PDF="325302" > PDF=325300 MemberID=2 </weight>
<weight id="1051" MUR="1.0" MUF="1.0" PDF="325303" > PDF=325300 MemberID=3 </weight>
<weight id="1052" MUR="1.0" MUF="1.0" PDF="325304" > PDF=325300 MemberID=4 </weight>
<weight id="1053" MUR="1.0" MUF="1.0" PDF="325305" > PDF=325300 MemberID=5 </weight>
<weight id="1054" MUR="1.0" MUF="1.0" PDF="325306" > PDF=325300 MemberID=6 </weight>
<weight id="1055" MUR="1.0" MUF="1.0" PDF="325307" > PDF=325300 MemberID=7 </weight>
<weight id="1056" MUR="1.0" MUF="1.0" PDF="325308" > PDF=325300 MemberID=8 </weight>
<weight id="1057" MUR="1.0" MUF="1.0" PDF="325309" > PDF=325300 MemberID=9 </weight>
<weight id="1058" MUR="1.0" MUF="1.0" PDF="325310" > PDF=325300 MemberID=10 </weight>
<weight id="1059" MUR="1.0" MUF="1.0" PDF="325311" > PDF=325300 MemberID=11 </weight>
<weight id="1060" MUR="1.0" MUF="1.0" PDF="325312" > PDF=325300 MemberID=12 </weight>
<weight id="1061" MUR="1.0" MUF="1.0" PDF="325313" > PDF=325300 MemberID=13 </weight>
<weight id="1062" MUR="1.0" MUF="1.0" PDF="325314" > PDF=325300 MemberID=14 </weight>
<weight id="1063" MUR="1.0" MUF="1.0" PDF="325315" > PDF=325300 MemberID=15 </weight>
<weight id="1064" MUR="1.0" MUF="1.0" PDF="325316" > PDF=325300 MemberID=16 </weight>
<weight id="1065" MUR="1.0" MUF="1.0" PDF="325317" > PDF=325300 MemberID=17 </weight>
<weight id="1066" MUR="1.0" MUF="1.0" PDF="325318" > PDF=325300 MemberID=18 </weight>
<weight id="1067" MUR="1.0" MUF="1.0" PDF="325319" > PDF=325300 MemberID=19 </weight>
<weight id="1068" MUR="1.0" MUF="1.0" PDF="325320" > PDF=325300 MemberID=20 </weight>
<weight id="1069" MUR="1.0" MUF="1.0" PDF="325321" > PDF=325300 MemberID=21 </weight>
<weight id="1070" MUR="1.0" MUF="1.0" PDF="325322" > PDF=325300 MemberID=22 </weight>
<weight id="1071" MUR="1.0" MUF="1.0" PDF="325323" > PDF=325300 MemberID=23 </weight>
<weight id="1072" MUR="1.0" MUF="1.0" PDF="325324" > PDF=325300 MemberID=24 </weight>
<weight id="1073" MUR="1.0" MUF="1.0" PDF="325325" > PDF=325300 MemberID=25 </weight>
<weight id="1074" MUR="1.0" MUF="1.0" PDF="325326" > PDF=325300 MemberID=26 </weight>
<weight id="1075" MUR="1.0" MUF="1.0" PDF="325327" > PDF=325300 MemberID=27 </weight>
<weight id="1076" MUR="1.0" MUF="1.0" PDF="325328" > PDF=325300 MemberID=28 </weight>
<weight id="1077" MUR="1.0" MUF="1.0" PDF="325329" > PDF=325300 MemberID=29 </weight>
<weight id="1078" MUR="1.0" MUF="1.0" PDF="325330" > PDF=325300 MemberID=30 </weight>
<weight id="1079" MUR="1.0" MUF="1.0" PDF="325331" > PDF=325300 MemberID=31 </weight>
<weight id="1080" MUR="1.0" MUF="1.0" PDF="325332" > PDF=325300 MemberID=32 </weight>
<weight id="1081" MUR="1.0" MUF="1.0" PDF="325333" > PDF=325300 MemberID=33 </weight>
<weight id="1082" MUR="1.0" MUF="1.0" PDF="325334" > PDF=325300 MemberID=34 </weight>
<weight id="1083" MUR="1.0" MUF="1.0" PDF="325335" > PDF=325300 MemberID=35 </weight>
<weight id="1084" MUR="1.0" MUF="1.0" PDF="325336" > PDF=325300 MemberID=36 </weight>
<weight id="1085" MUR="1.0" MUF="1.0" PDF="325337" > PDF=325300 MemberID=37 </weight>
<weight id="1086" MUR="1.0" MUF="1.0" PDF="325338" > PDF=325300 MemberID=38 </weight>
<weight id="1087" MUR="1.0" MUF="1.0" PDF="325339" > PDF=325300 MemberID=39 </weight>
<weight id="1088" MUR="1.0" MUF="1.0" PDF="325340" > PDF=325300 MemberID=40 </weight>
<weight id="1089" MUR="1.0" MUF="1.0" PDF="325341" > PDF=325300 MemberID=41 </weight>
<weight id="1090" MUR="1.0" MUF="1.0" PDF="325342" > PDF=325300 MemberID=42 </weight>
<weight id="1091" MUR="1.0" MUF="1.0" PDF="325343" > PDF=325300 MemberID=43 </weight>
<weight id="1092" MUR="1.0" MUF="1.0" PDF="325344" > PDF=325300 MemberID=44 </weight>
<weight id="1093" MUR="1.0" MUF="1.0" PDF="325345" > PDF=325300 MemberID=45 </weight>
<weight id="1094" MUR="1.0" MUF="1.0" PDF="325346" > PDF=325300 MemberID=46 </weight>
<weight id="1095" MUR="1.0" MUF="1.0" PDF="325347" > PDF=325300 MemberID=47 </weight>
<weight id="1096" MUR="1.0" MUF="1.0" PDF="325348" > PDF=325300 MemberID=48 </weight>
<weight id="1097" MUR="1.0" MUF="1.0" PDF="325349" > PDF=325300 MemberID=49 </weight>
<weight id="1098" MUR="1.0" MUF="1.0" PDF="325350" > PDF=325300 MemberID=50 </weight>
<weight id="1099" MUR="1.0" MUF="1.0" PDF="325351" > PDF=325300 MemberID=51 </weight>
<weight id="1100" MUR="1.0" MUF="1.0" PDF="325352" > PDF=325300 MemberID=52 </weight>
<weight id="1101" MUR="1.0" MUF="1.0" PDF="325353" > PDF=325300 MemberID=53 </weight>
<weight id="1102" MUR="1.0" MUF="1.0" PDF="325354" > PDF=325300 MemberID=54 </weight>
<weight id="1103" MUR="1.0" MUF="1.0" PDF="325355" > PDF=325300 MemberID=55 </weight>
<weight id="1104" MUR="1.0" MUF="1.0" PDF="325356" > PDF=325300 MemberID=56 </weight>
<weight id="1105" MUR="1.0" MUF="1.0" PDF="325357" > PDF=325300 MemberID=57 </weight>
<weight id="1106" MUR="1.0" MUF="1.0" PDF="325358" > PDF=325300 MemberID=58 </weight>
<weight id="1107" MUR="1.0" MUF="1.0" PDF="325359" > PDF=325300 MemberID=59 </weight>
<weight id="1108" MUR="1.0" MUF="1.0" PDF="325360" > PDF=325300 MemberID=60 </weight>
<weight id="1109" MUR="1.0" MUF="1.0" PDF="325361" > PDF=325300 MemberID=61 </weight>
<weight id="1110" MUR="1.0" MUF="1.0" PDF="325362" > PDF=325300 MemberID=62 </weight>
<weight id="1111" MUR="1.0" MUF="1.0" PDF="325363" > PDF=325300 MemberID=63 </weight>
<weight id="1112" MUR="1.0" MUF="1.0" PDF="325364" > PDF=325300 MemberID=64 </weight>
<weight id="1113" MUR="1.0" MUF="1.0" PDF="325365" > PDF=325300 MemberID=65 </weight>
<weight id="1114" MUR="1.0" MUF="1.0" PDF="325366" > PDF=325300 MemberID=66 </weight>
<weight id="1115" MUR="1.0" MUF="1.0" PDF="325367" > PDF=325300 MemberID=67 </weight>
<weight id="1116" MUR="1.0" MUF="1.0" PDF="325368" > PDF=325300 MemberID=68 </weight>
<weight id="1117" MUR="1.0" MUF="1.0" PDF="325369" > PDF=325300 MemberID=69 </weight>
<weight id="1118" MUR="1.0" MUF="1.0" PDF="325370" > PDF=325300 MemberID=70 </weight>
<weight id="1119" MUR="1.0" MUF="1.0" PDF="325371" > PDF=325300 MemberID=71 </weight>
<weight id="1120" MUR="1.0" MUF="1.0" PDF="325372" > PDF=325300 MemberID=72 </weight>
<weight id="1121" MUR="1.0" MUF="1.0" PDF="325373" > PDF=325300 MemberID=73 </weight>
<weight id="1122" MUR="1.0" MUF="1.0" PDF="325374" > PDF=325300 MemberID=74 </weight>
<weight id="1123" MUR="1.0" MUF="1.0" PDF="325375" > PDF=325300 MemberID=75 </weight>
<weight id="1124" MUR="1.0" MUF="1.0" PDF="325376" > PDF=325300 MemberID=76 </weight>
<weight id="1125" MUR="1.0" MUF="1.0" PDF="325377" > PDF=325300 MemberID=77 </weight>
<weight id="1126" MUR="1.0" MUF="1.0" PDF="325378" > PDF=325300 MemberID=78 </weight>
<weight id="1127" MUR="1.0" MUF="1.0" PDF="325379" > PDF=325300 MemberID=79 </weight>
<weight id="1128" MUR="1.0" MUF="1.0" PDF="325380" > PDF=325300 MemberID=80 </weight>
<weight id="1129" MUR="1.0" MUF="1.0" PDF="325381" > PDF=325300 MemberID=81 </weight>
<weight id="1130" MUR="1.0" MUF="1.0" PDF="325382" > PDF=325300 MemberID=82 </weight>
<weight id="1131" MUR="1.0" MUF="1.0" PDF="325383" > PDF=325300 MemberID=83 </weight>
<weight id="1132" MUR="1.0" MUF="1.0" PDF="325384" > PDF=325300 MemberID=84 </weight>
<weight id="1133" MUR="1.0" MUF="1.0" PDF="325385" > PDF=325300 MemberID=85 </weight>
<weight id="1134" MUR="1.0" MUF="1.0" PDF="325386" > PDF=325300 MemberID=86 </weight>
<weight id="1135" MUR="1.0" MUF="1.0" PDF="325387" > PDF=325300 MemberID=87 </weight>
<weight id="1136" MUR="1.0" MUF="1.0" PDF="325388" > PDF=325300 MemberID=88 </weight>
<weight id="1137" MUR="1.0" MUF="1.0" PDF="325389" > PDF=325300 MemberID=89 </weight>
<weight id="1138" MUR="1.0" MUF="1.0" PDF="325390" > PDF=325300 MemberID=90 </weight>
<weight id="1139" MUR="1.0" MUF="1.0" PDF="325391" > PDF=325300 MemberID=91 </weight>
<weight id="1140" MUR="1.0" MUF="1.0" PDF="325392" > PDF=325300 MemberID=92 </weight>
<weight id="1141" MUR="1.0" MUF="1.0" PDF="325393" > PDF=325300 MemberID=93 </weight>
<weight id="1142" MUR="1.0" MUF="1.0" PDF="325394" > PDF=325300 MemberID=94 </weight>
<weight id="1143" MUR="1.0" MUF="1.0" PDF="325395" > PDF=325300 MemberID=95 </weight>
<weight id="1144" MUR="1.0" MUF="1.0" PDF="325396" > PDF=325300 MemberID=96 </weight>
<weight id="1145" MUR="1.0" MUF="1.0" PDF="325397" > PDF=325300 MemberID=97 </weight>
<weight id="1146" MUR="1.0" MUF="1.0" PDF="325398" > PDF=325300 MemberID=98 </weight>
<weight id="1147" MUR="1.0" MUF="1.0" PDF="325399" > PDF=325300 MemberID=99 </weight>
<weight id="1148" MUR="1.0" MUF="1.0" PDF="325400" > PDF=325300 MemberID=100 </weight>
<weight id="1149" MUR="1.0" MUF="1.0" PDF="325401" > PDF=325300 MemberID=101 </weight>
<weight id="1150" MUR="1.0" MUF="1.0" PDF="325402" > PDF=325300 MemberID=102 </weight>
</weightgroup> # PDFSET -> PDFSET
<weightgroup name="NNPDF31_nnlo_as_0118_mc" combine="replicas"> # 316200: NNPDF3.1 NNLO global fit, alphas(MZ)=0.118. mem=0 ; average on replicas (setting negative replicas to zero); mem=1-100 ; PDF replicas
<weight id="1151" MUR="1.0" MUF="1.0" PDF="316200" > PDF=316200 MemberID=0 </weight>
<weight id="1152" MUR="1.0" MUF="1.0" PDF="316201" > PDF=316200 MemberID=1 </weight>
<weight id="1153" MUR="1.0" MUF="1.0" PDF="316202" > PDF=316200 MemberID=2 </weight>
<weight id="1154" MUR="1.0" MUF="1.0" PDF="316203" > PDF=316200 MemberID=3 </weight>
<weight id="1155" MUR="1.0" MUF="1.0" PDF="316204" > PDF=316200 MemberID=4 </weight>
<weight id="1156" MUR="1.0" MUF="1.0" PDF="316205" > PDF=316200 MemberID=5 </weight>
<weight id="1157" MUR="1.0" MUF="1.0" PDF="316206" > PDF=316200 MemberID=6 </weight>
<weight id="1158" MUR="1.0" MUF="1.0" PDF="316207" > PDF=316200 MemberID=7 </weight>
<weight id="1159" MUR="1.0" MUF="1.0" PDF="316208" > PDF=316200 MemberID=8 </weight>
<weight id="1160" MUR="1.0" MUF="1.0" PDF="316209" > PDF=316200 MemberID=9 </weight>
<weight id="1161" MUR="1.0" MUF="1.0" PDF="316210" > PDF=316200 MemberID=10 </weight>
<weight id="1162" MUR="1.0" MUF="1.0" PDF="316211" > PDF=316200 MemberID=11 </weight>
<weight id="1163" MUR="1.0" MUF="1.0" PDF="316212" > PDF=316200 MemberID=12 </weight>
<weight id="1164" MUR="1.0" MUF="1.0" PDF="316213" > PDF=316200 MemberID=13 </weight>
<weight id="1165" MUR="1.0" MUF="1.0" PDF="316214" > PDF=316200 MemberID=14 </weight>
<weight id="1166" MUR="1.0" MUF="1.0" PDF="316215" > PDF=316200 MemberID=15 </weight>
<weight id="1167" MUR="1.0" MUF="1.0" PDF="316216" > PDF=316200 MemberID=16 </weight>
<weight id="1168" MUR="1.0" MUF="1.0" PDF="316217" > PDF=316200 MemberID=17 </weight>
<weight id="1169" MUR="1.0" MUF="1.0" PDF="316218" > PDF=316200 MemberID=18 </weight>
<weight id="1170" MUR="1.0" MUF="1.0" PDF="316219" > PDF=316200 MemberID=19 </weight>
<weight id="1171" MUR="1.0" MUF="1.0" PDF="316220" > PDF=316200 MemberID=20 </weight>
<weight id="1172" MUR="1.0" MUF="1.0" PDF="316221" > PDF=316200 MemberID=21 </weight>
<weight id="1173" MUR="1.0" MUF="1.0" PDF="316222" > PDF=316200 MemberID=22 </weight>
<weight id="1174" MUR="1.0" MUF="1.0" PDF="316223" > PDF=316200 MemberID=23 </weight>
<weight id="1175" MUR="1.0" MUF="1.0" PDF="316224" > PDF=316200 MemberID=24 </weight>
<weight id="1176" MUR="1.0" MUF="1.0" PDF="316225" > PDF=316200 MemberID=25 </weight>
<weight id="1177" MUR="1.0" MUF="1.0" PDF="316226" > PDF=316200 MemberID=26 </weight>
<weight id="1178" MUR="1.0" MUF="1.0" PDF="316227" > PDF=316200 MemberID=27 </weight>
<weight id="1179" MUR="1.0" MUF="1.0" PDF="316228" > PDF=316200 MemberID=28 </weight>
<weight id="1180" MUR="1.0" MUF="1.0" PDF="316229" > PDF=316200 MemberID=29 </weight>
<weight id="1181" MUR="1.0" MUF="1.0" PDF="316230" > PDF=316200 MemberID=30 </weight>
<weight id="1182" MUR="1.0" MUF="1.0" PDF="316231" > PDF=316200 MemberID=31 </weight>
<weight id="1183" MUR="1.0" MUF="1.0" PDF="316232" > PDF=316200 MemberID=32 </weight>
<weight id="1184" MUR="1.0" MUF="1.0" PDF="316233" > PDF=316200 MemberID=33 </weight>
<weight id="1185" MUR="1.0" MUF="1.0" PDF="316234" > PDF=316200 MemberID=34 </weight>
<weight id="1186" MUR="1.0" MUF="1.0" PDF="316235" > PDF=316200 MemberID=35 </weight>
<weight id="1187" MUR="1.0" MUF="1.0" PDF="316236" > PDF=316200 MemberID=36 </weight>
<weight id="1188" MUR="1.0" MUF="1.0" PDF="316237" > PDF=316200 MemberID=37 </weight>
<weight id="1189" MUR="1.0" MUF="1.0" PDF="316238" > PDF=316200 MemberID=38 </weight>
<weight id="1190" MUR="1.0" MUF="1.0" PDF="316239" > PDF=316200 MemberID=39 </weight>
<weight id="1191" MUR="1.0" MUF="1.0" PDF="316240" > PDF=316200 MemberID=40 </weight>
<weight id="1192" MUR="1.0" MUF="1.0" PDF="316241" > PDF=316200 MemberID=41 </weight>
<weight id="1193" MUR="1.0" MUF="1.0" PDF="316242" > PDF=316200 MemberID=42 </weight>
<weight id="1194" MUR="1.0" MUF="1.0" PDF="316243" > PDF=316200 MemberID=43 </weight>
<weight id="1195" MUR="1.0" MUF="1.0" PDF="316244" > PDF=316200 MemberID=44 </weight>
<weight id="1196" MUR="1.0" MUF="1.0" PDF="316245" > PDF=316200 MemberID=45 </weight>
<weight id="1197" MUR="1.0" MUF="1.0" PDF="316246" > PDF=316200 MemberID=46 </weight>
<weight id="1198" MUR="1.0" MUF="1.0" PDF="316247" > PDF=316200 MemberID=47 </weight>
<weight id="1199" MUR="1.0" MUF="1.0" PDF="316248" > PDF=316200 MemberID=48 </weight>
<weight id="1200" MUR="1.0" MUF="1.0" PDF="316249" > PDF=316200 MemberID=49 </weight>
<weight id="1201" MUR="1.0" MUF="1.0" PDF="316250" > PDF=316200 MemberID=50 </weight>
<weight id="1202" MUR="1.0" MUF="1.0" PDF="316251" > PDF=316200 MemberID=51 </weight>
<weight id="1203" MUR="1.0" MUF="1.0" PDF="316252" > PDF=316200 MemberID=52 </weight>
<weight id="1204" MUR="1.0" MUF="1.0" PDF="316253" > PDF=316200 MemberID=53 </weight>
<weight id="1205" MUR="1.0" MUF="1.0" PDF="316254" > PDF=316200 MemberID=54 </weight>
<weight id="1206" MUR="1.0" MUF="1.0" PDF="316255" > PDF=316200 MemberID=55 </weight>
<weight id="1207" MUR="1.0" MUF="1.0" PDF="316256" > PDF=316200 MemberID=56 </weight>
<weight id="1208" MUR="1.0" MUF="1.0" PDF="316257" > PDF=316200 MemberID=57 </weight>
<weight id="1209" MUR="1.0" MUF="1.0" PDF="316258" > PDF=316200 MemberID=58 </weight>
<weight id="1210" MUR="1.0" MUF="1.0" PDF="316259" > PDF=316200 MemberID=59 </weight>
<weight id="1211" MUR="1.0" MUF="1.0" PDF="316260" > PDF=316200 MemberID=60 </weight>
<weight id="1212" MUR="1.0" MUF="1.0" PDF="316261" > PDF=316200 MemberID=61 </weight>
<weight id="1213" MUR="1.0" MUF="1.0" PDF="316262" > PDF=316200 MemberID=62 </weight>
<weight id="1214" MUR="1.0" MUF="1.0" PDF="316263" > PDF=316200 MemberID=63 </weight>
<weight id="1215" MUR="1.0" MUF="1.0" PDF="316264" > PDF=316200 MemberID=64 </weight>
<weight id="1216" MUR="1.0" MUF="1.0" PDF="316265" > PDF=316200 MemberID=65 </weight>
<weight id="1217" MUR="1.0" MUF="1.0" PDF="316266" > PDF=316200 MemberID=66 </weight>
<weight id="1218" MUR="1.0" MUF="1.0" PDF="316267" > PDF=316200 MemberID=67 </weight>
<weight id="1219" MUR="1.0" MUF="1.0" PDF="316268" > PDF=316200 MemberID=68 </weight>
<weight id="1220" MUR="1.0" MUF="1.0" PDF="316269" > PDF=316200 MemberID=69 </weight>
<weight id="1221" MUR="1.0" MUF="1.0" PDF="316270" > PDF=316200 MemberID=70 </weight>
<weight id="1222" MUR="1.0" MUF="1.0" PDF="316271" > PDF=316200 MemberID=71 </weight>
<weight id="1223" MUR="1.0" MUF="1.0" PDF="316272" > PDF=316200 MemberID=72 </weight>
<weight id="1224" MUR="1.0" MUF="1.0" PDF="316273" > PDF=316200 MemberID=73 </weight>
<weight id="1225" MUR="1.0" MUF="1.0" PDF="316274" > PDF=316200 MemberID=74 </weight>
<weight id="1226" MUR="1.0" MUF="1.0" PDF="316275" > PDF=316200 MemberID=75 </weight>
<weight id="1227" MUR="1.0" MUF="1.0" PDF="316276" > PDF=316200 MemberID=76 </weight>
<weight id="1228" MUR="1.0" MUF="1.0" PDF="316277" > PDF=316200 MemberID=77 </weight>
<weight id="1229" MUR="1.0" MUF="1.0" PDF="316278" > PDF=316200 MemberID=78 </weight>
<weight id="1230" MUR="1.0" MUF="1.0" PDF="316279" > PDF=316200 MemberID=79 </weight>
<weight id="1231" MUR="1.0" MUF="1.0" PDF="316280" > PDF=316200 MemberID=80 </weight>
<weight id="1232" MUR="1.0" MUF="1.0" PDF="316281" > PDF=316200 MemberID=81 </weight>
<weight id="1233" MUR="1.0" MUF="1.0" PDF="316282" > PDF=316200 MemberID=82 </weight>
<weight id="1234" MUR="1.0" MUF="1.0" PDF="316283" > PDF=316200 MemberID=83 </weight>
<weight id="1235" MUR="1.0" MUF="1.0" PDF="316284" > PDF=316200 MemberID=84 </weight>
<weight id="1236" MUR="1.0" MUF="1.0" PDF="316285" > PDF=316200 MemberID=85 </weight>
<weight id="1237" MUR="1.0" MUF="1.0" PDF="316286" > PDF=316200 MemberID=86 </weight>
<weight id="1238" MUR="1.0" MUF="1.0" PDF="316287" > PDF=316200 MemberID=87 </weight>
<weight id="1239" MUR="1.0" MUF="1.0" PDF="316288" > PDF=316200 MemberID=88 </weight>
<weight id="1240" MUR="1.0" MUF="1.0" PDF="316289" > PDF=316200 MemberID=89 </weight>
<weight id="1241" MUR="1.0" MUF="1.0" PDF="316290" > PDF=316200 MemberID=90 </weight>
<weight id="1242" MUR="1.0" MUF="1.0" PDF="316291" > PDF=316200 MemberID=91 </weight>
<weight id="1243" MUR="1.0" MUF="1.0" PDF="316292" > PDF=316200 MemberID=92 </weight>
<weight id="1244" MUR="1.0" MUF="1.0" PDF="316293" > PDF=316200 MemberID=93 </weight>
<weight id="1245" MUR="1.0" MUF="1.0" PDF="316294" > PDF=316200 MemberID=94 </weight>
<weight id="1246" MUR="1.0" MUF="1.0" PDF="316295" > PDF=316200 MemberID=95 </weight>
<weight id="1247" MUR="1.0" MUF="1.0" PDF="316296" > PDF=316200 MemberID=96 </weight>
<weight id="1248" MUR="1.0" MUF="1.0" PDF="316297" > PDF=316200 MemberID=97 </weight>
<weight id="1249" MUR="1.0" MUF="1.0" PDF="316298" > PDF=316200 MemberID=98 </weight>
<weight id="1250" MUR="1.0" MUF="1.0" PDF="316299" > PDF=316200 MemberID=99 </weight>
<weight id="1251" MUR="1.0" MUF="1.0" PDF="316300" > PDF=316200 MemberID=100 </weight>
</weightgroup> # PDFSET -> PDFSET
<weightgroup name="NNPDF31_nnlo_hessian_pdfas" combine="symmhessian+as"> # 306000: Hessian conversion of NNPDF31_nnlo_as_0118_1000, mem=0 central value ; Alphas(MZ)=0.118; mem=1-100 ; PDF eig.; mem=101 ; central value Alphas(MZ)=0.116; mem=102 ; central value Alphas(MZ)=0.120
<weight id="1252" MUR="1.0" MUF="1.0" PDF="306000" > PDF=306000 MemberID=0 </weight>
<weight id="1253" MUR="1.0" MUF="1.0" PDF="306001" > PDF=306000 MemberID=1 </weight>
<weight id="1254" MUR="1.0" MUF="1.0" PDF="306002" > PDF=306000 MemberID=2 </weight>
<weight id="1255" MUR="1.0" MUF="1.0" PDF="306003" > PDF=306000 MemberID=3 </weight>
<weight id="1256" MUR="1.0" MUF="1.0" PDF="306004" > PDF=306000 MemberID=4 </weight>
<weight id="1257" MUR="1.0" MUF="1.0" PDF="306005" > PDF=306000 MemberID=5 </weight>
<weight id="1258" MUR="1.0" MUF="1.0" PDF="306006" > PDF=306000 MemberID=6 </weight>
<weight id="1259" MUR="1.0" MUF="1.0" PDF="306007" > PDF=306000 MemberID=7 </weight>
<weight id="1260" MUR="1.0" MUF="1.0" PDF="306008" > PDF=306000 MemberID=8 </weight>
<weight id="1261" MUR="1.0" MUF="1.0" PDF="306009" > PDF=306000 MemberID=9 </weight>
<weight id="1262" MUR="1.0" MUF="1.0" PDF="306010" > PDF=306000 MemberID=10 </weight>
<weight id="1263" MUR="1.0" MUF="1.0" PDF="306011" > PDF=306000 MemberID=11 </weight>
<weight id="1264" MUR="1.0" MUF="1.0" PDF="306012" > PDF=306000 MemberID=12 </weight>
<weight id="1265" MUR="1.0" MUF="1.0" PDF="306013" > PDF=306000 MemberID=13 </weight>
<weight id="1266" MUR="1.0" MUF="1.0" PDF="306014" > PDF=306000 MemberID=14 </weight>
<weight id="1267" MUR="1.0" MUF="1.0" PDF="306015" > PDF=306000 MemberID=15 </weight>
<weight id="1268" MUR="1.0" MUF="1.0" PDF="306016" > PDF=306000 MemberID=16 </weight>
<weight id="1269" MUR="1.0" MUF="1.0" PDF="306017" > PDF=306000 MemberID=17 </weight>
<weight id="1270" MUR="1.0" MUF="1.0" PDF="306018" > PDF=306000 MemberID=18 </weight>
<weight id="1271" MUR="1.0" MUF="1.0" PDF="306019" > PDF=306000 MemberID=19 </weight>
<weight id="1272" MUR="1.0" MUF="1.0" PDF="306020" > PDF=306000 MemberID=20 </weight>
<weight id="1273" MUR="1.0" MUF="1.0" PDF="306021" > PDF=306000 MemberID=21 </weight>
<weight id="1274" MUR="1.0" MUF="1.0" PDF="306022" > PDF=306000 MemberID=22 </weight>
<weight id="1275" MUR="1.0" MUF="1.0" PDF="306023" > PDF=306000 MemberID=23 </weight>
<weight id="1276" MUR="1.0" MUF="1.0" PDF="306024" > PDF=306000 MemberID=24 </weight>
<weight id="1277" MUR="1.0" MUF="1.0" PDF="306025" > PDF=306000 MemberID=25 </weight>
<weight id="1278" MUR="1.0" MUF="1.0" PDF="306026" > PDF=306000 MemberID=26 </weight>
<weight id="1279" MUR="1.0" MUF="1.0" PDF="306027" > PDF=306000 MemberID=27 </weight>
<weight id="1280" MUR="1.0" MUF="1.0" PDF="306028" > PDF=306000 MemberID=28 </weight>
<weight id="1281" MUR="1.0" MUF="1.0" PDF="306029" > PDF=306000 MemberID=29 </weight>
<weight id="1282" MUR="1.0" MUF="1.0" PDF="306030" > PDF=306000 MemberID=30 </weight>
<weight id="1283" MUR="1.0" MUF="1.0" PDF="306031" > PDF=306000 MemberID=31 </weight>
<weight id="1284" MUR="1.0" MUF="1.0" PDF="306032" > PDF=306000 MemberID=32 </weight>
<weight id="1285" MUR="1.0" MUF="1.0" PDF="306033" > PDF=306000 MemberID=33 </weight>
<weight id="1286" MUR="1.0" MUF="1.0" PDF="306034" > PDF=306000 MemberID=34 </weight>
<weight id="1287" MUR="1.0" MUF="1.0" PDF="306035" > PDF=306000 MemberID=35 </weight>
<weight id="1288" MUR="1.0" MUF="1.0" PDF="306036" > PDF=306000 MemberID=36 </weight>
<weight id="1289" MUR="1.0" MUF="1.0" PDF="306037" > PDF=306000 MemberID=37 </weight>
<weight id="1290" MUR="1.0" MUF="1.0" PDF="306038" > PDF=306000 MemberID=38 </weight>
<weight id="1291" MUR="1.0" MUF="1.0" PDF="306039" > PDF=306000 MemberID=39 </weight>
<weight id="1292" MUR="1.0" MUF="1.0" PDF="306040" > PDF=306000 MemberID=40 </weight>
<weight id="1293" MUR="1.0" MUF="1.0" PDF="306041" > PDF=306000 MemberID=41 </weight>
<weight id="1294" MUR="1.0" MUF="1.0" PDF="306042" > PDF=306000 MemberID=42 </weight>
<weight id="1295" MUR="1.0" MUF="1.0" PDF="306043" > PDF=306000 MemberID=43 </weight>
<weight id="1296" MUR="1.0" MUF="1.0" PDF="306044" > PDF=306000 MemberID=44 </weight>
<weight id="1297" MUR="1.0" MUF="1.0" PDF="306045" > PDF=306000 MemberID=45 </weight>
<weight id="1298" MUR="1.0" MUF="1.0" PDF="306046" > PDF=306000 MemberID=46 </weight>
<weight id="1299" MUR="1.0" MUF="1.0" PDF="306047" > PDF=306000 MemberID=47 </weight>
<weight id="1300" MUR="1.0" MUF="1.0" PDF="306048" > PDF=306000 MemberID=48 </weight>
<weight id="1301" MUR="1.0" MUF="1.0" PDF="306049" > PDF=306000 MemberID=49 </weight>
<weight id="1302" MUR="1.0" MUF="1.0" PDF="306050" > PDF=306000 MemberID=50 </weight>
<weight id="1303" MUR="1.0" MUF="1.0" PDF="306051" > PDF=306000 MemberID=51 </weight>
<weight id="1304" MUR="1.0" MUF="1.0" PDF="306052" > PDF=306000 MemberID=52 </weight>
<weight id="1305" MUR="1.0" MUF="1.0" PDF="306053" > PDF=306000 MemberID=53 </weight>
<weight id="1306" MUR="1.0" MUF="1.0" PDF="306054" > PDF=306000 MemberID=54 </weight>
<weight id="1307" MUR="1.0" MUF="1.0" PDF="306055" > PDF=306000 MemberID=55 </weight>
<weight id="1308" MUR="1.0" MUF="1.0" PDF="306056" > PDF=306000 MemberID=56 </weight>
<weight id="1309" MUR="1.0" MUF="1.0" PDF="306057" > PDF=306000 MemberID=57 </weight>
<weight id="1310" MUR="1.0" MUF="1.0" PDF="306058" > PDF=306000 MemberID=58 </weight>
<weight id="1311" MUR="1.0" MUF="1.0" PDF="306059" > PDF=306000 MemberID=59 </weight>
<weight id="1312" MUR="1.0" MUF="1.0" PDF="306060" > PDF=306000 MemberID=60 </weight>
<weight id="1313" MUR="1.0" MUF="1.0" PDF="306061" > PDF=306000 MemberID=61 </weight>
<weight id="1314" MUR="1.0" MUF="1.0" PDF="306062" > PDF=306000 MemberID=62 </weight>
<weight id="1315" MUR="1.0" MUF="1.0" PDF="306063" > PDF=306000 MemberID=63 </weight>
<weight id="1316" MUR="1.0" MUF="1.0" PDF="306064" > PDF=306000 MemberID=64 </weight>
<weight id="1317" MUR="1.0" MUF="1.0" PDF="306065" > PDF=306000 MemberID=65 </weight>
<weight id="1318" MUR="1.0" MUF="1.0" PDF="306066" > PDF=306000 MemberID=66 </weight>
<weight id="1319" MUR="1.0" MUF="1.0" PDF="306067" > PDF=306000 MemberID=67 </weight>
<weight id="1320" MUR="1.0" MUF="1.0" PDF="306068" > PDF=306000 MemberID=68 </weight>
<weight id="1321" MUR="1.0" MUF="1.0" PDF="306069" > PDF=306000 MemberID=69 </weight>
<weight id="1322" MUR="1.0" MUF="1.0" PDF="306070" > PDF=306000 MemberID=70 </weight>
<weight id="1323" MUR="1.0" MUF="1.0" PDF="306071" > PDF=306000 MemberID=71 </weight>
<weight id="1324" MUR="1.0" MUF="1.0" PDF="306072" > PDF=306000 MemberID=72 </weight>
<weight id="1325" MUR="1.0" MUF="1.0" PDF="306073" > PDF=306000 MemberID=73 </weight>
<weight id="1326" MUR="1.0" MUF="1.0" PDF="306074" > PDF=306000 MemberID=74 </weight>
<weight id="1327" MUR="1.0" MUF="1.0" PDF="306075" > PDF=306000 MemberID=75 </weight>
<weight id="1328" MUR="1.0" MUF="1.0" PDF="306076" > PDF=306000 MemberID=76 </weight>
<weight id="1329" MUR="1.0" MUF="1.0" PDF="306077" > PDF=306000 MemberID=77 </weight>
<weight id="1330" MUR="1.0" MUF="1.0" PDF="306078" > PDF=306000 MemberID=78 </weight>
<weight id="1331" MUR="1.0" MUF="1.0" PDF="306079" > PDF=306000 MemberID=79 </weight>
<weight id="1332" MUR="1.0" MUF="1.0" PDF="306080" > PDF=306000 MemberID=80 </weight>
<weight id="1333" MUR="1.0" MUF="1.0" PDF="306081" > PDF=306000 MemberID=81 </weight>
<weight id="1334" MUR="1.0" MUF="1.0" PDF="306082" > PDF=306000 MemberID=82 </weight>
<weight id="1335" MUR="1.0" MUF="1.0" PDF="306083" > PDF=306000 MemberID=83 </weight>
<weight id="1336" MUR="1.0" MUF="1.0" PDF="306084" > PDF=306000 MemberID=84 </weight>
<weight id="1337" MUR="1.0" MUF="1.0" PDF="306085" > PDF=306000 MemberID=85 </weight>
<weight id="1338" MUR="1.0" MUF="1.0" PDF="306086" > PDF=306000 MemberID=86 </weight>
<weight id="1339" MUR="1.0" MUF="1.0" PDF="306087" > PDF=306000 MemberID=87 </weight>
<weight id="1340" MUR="1.0" MUF="1.0" PDF="306088" > PDF=306000 MemberID=88 </weight>
<weight id="1341" MUR="1.0" MUF="1.0" PDF="306089" > PDF=306000 MemberID=89 </weight>
<weight id="1342" MUR="1.0" MUF="1.0" PDF="306090" > PDF=306000 MemberID=90 </weight>
<weight id="1343" MUR="1.0" MUF="1.0" PDF="306091" > PDF=306000 MemberID=91 </weight>
<weight id="1344" MUR="1.0" MUF="1.0" PDF="306092" > PDF=306000 MemberID=92 </weight>
<weight id="1345" MUR="1.0" MUF="1.0" PDF="306093" > PDF=306000 MemberID=93 </weight>
<weight id="1346" MUR="1.0" MUF="1.0" PDF="306094" > PDF=306000 MemberID=94 </weight>
<weight id="1347" MUR="1.0" MUF="1.0" PDF="306095" > PDF=306000 MemberID=95 </weight>
<weight id="1348" MUR="1.0" MUF="1.0" PDF="306096" > PDF=306000 MemberID=96 </weight>
<weight id="1349" MUR="1.0" MUF="1.0" PDF="306097" > PDF=306000 MemberID=97 </weight>
<weight id="1350" MUR="1.0" MUF="1.0" PDF="306098" > PDF=306000 MemberID=98 </weight>
<weight id="1351" MUR="1.0" MUF="1.0" PDF="306099" > PDF=306000 MemberID=99 </weight>
<weight id="1352" MUR="1.0" MUF="1.0" PDF="306100" > PDF=306000 MemberID=100 </weight>
<weight id="1353" MUR="1.0" MUF="1.0" PDF="306101" > PDF=306000 MemberID=101 </weight>
<weight id="1354" MUR="1.0" MUF="1.0" PDF="306102" > PDF=306000 MemberID=102 </weight>
</weightgroup> # PDFSET -> PDF
<weight id="1355" MUR="1.0" MUF="1.0" PDF="322500" > PDF=322500 MemberID=0 </weight>
<weight id="1356" MUR="1.0" MUF="1.0" PDF="322700" > PDF=322700 MemberID=0 </weight>
<weight id="1357" MUR="1.0" MUF="1.0" PDF="322900" > PDF=322900 MemberID=0 </weight>
<weight id="1358" MUR="1.0" MUF="1.0" PDF="323100" > PDF=323100 MemberID=0 </weight>
<weight id="1359" MUR="1.0" MUF="1.0" PDF="323300" > PDF=323300 MemberID=0 </weight>
<weight id="1360" MUR="1.0" MUF="1.0" PDF="323500" > PDF=323500 MemberID=0 </weight>
<weight id="1361" MUR="1.0" MUF="1.0" PDF="323700" > PDF=323700 MemberID=0 </weight>
<weight id="1362" MUR="1.0" MUF="1.0" PDF="323900" > PDF=323900 MemberID=0 </weight>
<weightgroup name="NNPDF31_nlo_hessian_pdfas" combine="symmhessian+as"> # 305800: Hessian conversion of NNPDF31_nlo_as_0118_1000, mem=0 ; central value Alphas(MZ)=0.118; mem=1-100 ; PDF eig.; mem=101 ; central value Alphas(MZ)=0.116; mem=102 ; central value Alphas(MZ)=0.120
<weight id="1363" MUR="1.0" MUF="1.0" PDF="305800" > PDF=305800 MemberID=0 </weight>
<weight id="1364" MUR="1.0" MUF="1.0" PDF="305801" > PDF=305800 MemberID=1 </weight>
<weight id="1365" MUR="1.0" MUF="1.0" PDF="305802" > PDF=305800 MemberID=2 </weight>
<weight id="1366" MUR="1.0" MUF="1.0" PDF="305803" > PDF=305800 MemberID=3 </weight>
<weight id="1367" MUR="1.0" MUF="1.0" PDF="305804" > PDF=305800 MemberID=4 </weight>
<weight id="1368" MUR="1.0" MUF="1.0" PDF="305805" > PDF=305800 MemberID=5 </weight>
<weight id="1369" MUR="1.0" MUF="1.0" PDF="305806" > PDF=305800 MemberID=6 </weight>
<weight id="1370" MUR="1.0" MUF="1.0" PDF="305807" > PDF=305800 MemberID=7 </weight>
<weight id="1371" MUR="1.0" MUF="1.0" PDF="305808" > PDF=305800 MemberID=8 </weight>
<weight id="1372" MUR="1.0" MUF="1.0" PDF="305809" > PDF=305800 MemberID=9 </weight>
<weight id="1373" MUR="1.0" MUF="1.0" PDF="305810" > PDF=305800 MemberID=10 </weight>
<weight id="1374" MUR="1.0" MUF="1.0" PDF="305811" > PDF=305800 MemberID=11 </weight>
<weight id="1375" MUR="1.0" MUF="1.0" PDF="305812" > PDF=305800 MemberID=12 </weight>
<weight id="1376" MUR="1.0" MUF="1.0" PDF="305813" > PDF=305800 MemberID=13 </weight>
<weight id="1377" MUR="1.0" MUF="1.0" PDF="305814" > PDF=305800 MemberID=14 </weight>
<weight id="1378" MUR="1.0" MUF="1.0" PDF="305815" > PDF=305800 MemberID=15 </weight>
<weight id="1379" MUR="1.0" MUF="1.0" PDF="305816" > PDF=305800 MemberID=16 </weight>
<weight id="1380" MUR="1.0" MUF="1.0" PDF="305817" > PDF=305800 MemberID=17 </weight>
<weight id="1381" MUR="1.0" MUF="1.0" PDF="305818" > PDF=305800 MemberID=18 </weight>
<weight id="1382" MUR="1.0" MUF="1.0" PDF="305819" > PDF=305800 MemberID=19 </weight>
<weight id="1383" MUR="1.0" MUF="1.0" PDF="305820" > PDF=305800 MemberID=20 </weight>
<weight id="1384" MUR="1.0" MUF="1.0" PDF="305821" > PDF=305800 MemberID=21 </weight>
<weight id="1385" MUR="1.0" MUF="1.0" PDF="305822" > PDF=305800 MemberID=22 </weight>
<weight id="1386" MUR="1.0" MUF="1.0" PDF="305823" > PDF=305800 MemberID=23 </weight>
<weight id="1387" MUR="1.0" MUF="1.0" PDF="305824" > PDF=305800 MemberID=24 </weight>
<weight id="1388" MUR="1.0" MUF="1.0" PDF="305825" > PDF=305800 MemberID=25 </weight>
<weight id="1389" MUR="1.0" MUF="1.0" PDF="305826" > PDF=305800 MemberID=26 </weight>
<weight id="1390" MUR="1.0" MUF="1.0" PDF="305827" > PDF=305800 MemberID=27 </weight>
<weight id="1391" MUR="1.0" MUF="1.0" PDF="305828" > PDF=305800 MemberID=28 </weight>
<weight id="1392" MUR="1.0" MUF="1.0" PDF="305829" > PDF=305800 MemberID=29 </weight>
<weight id="1393" MUR="1.0" MUF="1.0" PDF="305830" > PDF=305800 MemberID=30 </weight>
<weight id="1394" MUR="1.0" MUF="1.0" PDF="305831" > PDF=305800 MemberID=31 </weight>
<weight id="1395" MUR="1.0" MUF="1.0" PDF="305832" > PDF=305800 MemberID=32 </weight>
<weight id="1396" MUR="1.0" MUF="1.0" PDF="305833" > PDF=305800 MemberID=33 </weight>
<weight id="1397" MUR="1.0" MUF="1.0" PDF="305834" > PDF=305800 MemberID=34 </weight>
<weight id="1398" MUR="1.0" MUF="1.0" PDF="305835" > PDF=305800 MemberID=35 </weight>
<weight id="1399" MUR="1.0" MUF="1.0" PDF="305836" > PDF=305800 MemberID=36 </weight>
<weight id="1400" MUR="1.0" MUF="1.0" PDF="305837" > PDF=305800 MemberID=37 </weight>
<weight id="1401" MUR="1.0" MUF="1.0" PDF="305838" > PDF=305800 MemberID=38 </weight>
<weight id="1402" MUR="1.0" MUF="1.0" PDF="305839" > PDF=305800 MemberID=39 </weight>
<weight id="1403" MUR="1.0" MUF="1.0" PDF="305840" > PDF=305800 MemberID=40 </weight>
<weight id="1404" MUR="1.0" MUF="1.0" PDF="305841" > PDF=305800 MemberID=41 </weight>
<weight id="1405" MUR="1.0" MUF="1.0" PDF="305842" > PDF=305800 MemberID=42 </weight>
<weight id="1406" MUR="1.0" MUF="1.0" PDF="305843" > PDF=305800 MemberID=43 </weight>
<weight id="1407" MUR="1.0" MUF="1.0" PDF="305844" > PDF=305800 MemberID=44 </weight>
<weight id="1408" MUR="1.0" MUF="1.0" PDF="305845" > PDF=305800 MemberID=45 </weight>
<weight id="1409" MUR="1.0" MUF="1.0" PDF="305846" > PDF=305800 MemberID=46 </weight>
<weight id="1410" MUR="1.0" MUF="1.0" PDF="305847" > PDF=305800 MemberID=47 </weight>
<weight id="1411" MUR="1.0" MUF="1.0" PDF="305848" > PDF=305800 MemberID=48 </weight>
<weight id="1412" MUR="1.0" MUF="1.0" PDF="305849" > PDF=305800 MemberID=49 </weight>
<weight id="1413" MUR="1.0" MUF="1.0" PDF="305850" > PDF=305800 MemberID=50 </weight>
<weight id="1414" MUR="1.0" MUF="1.0" PDF="305851" > PDF=305800 MemberID=51 </weight>
<weight id="1415" MUR="1.0" MUF="1.0" PDF="305852" > PDF=305800 MemberID=52 </weight>
<weight id="1416" MUR="1.0" MUF="1.0" PDF="305853" > PDF=305800 MemberID=53 </weight>
<weight id="1417" MUR="1.0" MUF="1.0" PDF="305854" > PDF=305800 MemberID=54 </weight>
<weight id="1418" MUR="1.0" MUF="1.0" PDF="305855" > PDF=305800 MemberID=55 </weight>
<weight id="1419" MUR="1.0" MUF="1.0" PDF="305856" > PDF=305800 MemberID=56 </weight>
<weight id="1420" MUR="1.0" MUF="1.0" PDF="305857" > PDF=305800 MemberID=57 </weight>
<weight id="1421" MUR="1.0" MUF="1.0" PDF="305858" > PDF=305800 MemberID=58 </weight>
<weight id="1422" MUR="1.0" MUF="1.0" PDF="305859" > PDF=305800 MemberID=59 </weight>
<weight id="1423" MUR="1.0" MUF="1.0" PDF="305860" > PDF=305800 MemberID=60 </weight>
<weight id="1424" MUR="1.0" MUF="1.0" PDF="305861" > PDF=305800 MemberID=61 </weight>
<weight id="1425" MUR="1.0" MUF="1.0" PDF="305862" > PDF=305800 MemberID=62 </weight>
<weight id="1426" MUR="1.0" MUF="1.0" PDF="305863" > PDF=305800 MemberID=63 </weight>
<weight id="1427" MUR="1.0" MUF="1.0" PDF="305864" > PDF=305800 MemberID=64 </weight>
<weight id="1428" MUR="1.0" MUF="1.0" PDF="305865" > PDF=305800 MemberID=65 </weight>
<weight id="1429" MUR="1.0" MUF="1.0" PDF="305866" > PDF=305800 MemberID=66 </weight>
<weight id="1430" MUR="1.0" MUF="1.0" PDF="305867" > PDF=305800 MemberID=67 </weight>
<weight id="1431" MUR="1.0" MUF="1.0" PDF="305868" > PDF=305800 MemberID=68 </weight>
<weight id="1432" MUR="1.0" MUF="1.0" PDF="305869" > PDF=305800 MemberID=69 </weight>
<weight id="1433" MUR="1.0" MUF="1.0" PDF="305870" > PDF=305800 MemberID=70 </weight>
<weight id="1434" MUR="1.0" MUF="1.0" PDF="305871" > PDF=305800 MemberID=71 </weight>
<weight id="1435" MUR="1.0" MUF="1.0" PDF="305872" > PDF=305800 MemberID=72 </weight>
<weight id="1436" MUR="1.0" MUF="1.0" PDF="305873" > PDF=305800 MemberID=73 </weight>
<weight id="1437" MUR="1.0" MUF="1.0" PDF="305874" > PDF=305800 MemberID=74 </weight>
<weight id="1438" MUR="1.0" MUF="1.0" PDF="305875" > PDF=305800 MemberID=75 </weight>
<weight id="1439" MUR="1.0" MUF="1.0" PDF="305876" > PDF=305800 MemberID=76 </weight>
<weight id="1440" MUR="1.0" MUF="1.0" PDF="305877" > PDF=305800 MemberID=77 </weight>
<weight id="1441" MUR="1.0" MUF="1.0" PDF="305878" > PDF=305800 MemberID=78 </weight>
<weight id="1442" MUR="1.0" MUF="1.0" PDF="305879" > PDF=305800 MemberID=79 </weight>
<weight id="1443" MUR="1.0" MUF="1.0" PDF="305880" > PDF=305800 MemberID=80 </weight>
<weight id="1444" MUR="1.0" MUF="1.0" PDF="305881" > PDF=305800 MemberID=81 </weight>
<weight id="1445" MUR="1.0" MUF="1.0" PDF="305882" > PDF=305800 MemberID=82 </weight>
<weight id="1446" MUR="1.0" MUF="1.0" PDF="305883" > PDF=305800 MemberID=83 </weight>
<weight id="1447" MUR="1.0" MUF="1.0" PDF="305884" > PDF=305800 MemberID=84 </weight>
<weight id="1448" MUR="1.0" MUF="1.0" PDF="305885" > PDF=305800 MemberID=85 </weight>
<weight id="1449" MUR="1.0" MUF="1.0" PDF="305886" > PDF=305800 MemberID=86 </weight>
<weight id="1450" MUR="1.0" MUF="1.0" PDF="305887" > PDF=305800 MemberID=87 </weight>
<weight id="1451" MUR="1.0" MUF="1.0" PDF="305888" > PDF=305800 MemberID=88 </weight>
<weight id="1452" MUR="1.0" MUF="1.0" PDF="305889" > PDF=305800 MemberID=89 </weight>
<weight id="1453" MUR="1.0" MUF="1.0" PDF="305890" > PDF=305800 MemberID=90 </weight>
<weight id="1454" MUR="1.0" MUF="1.0" PDF="305891" > PDF=305800 MemberID=91 </weight>
<weight id="1455" MUR="1.0" MUF="1.0" PDF="305892" > PDF=305800 MemberID=92 </weight>
<weight id="1456" MUR="1.0" MUF="1.0" PDF="305893" > PDF=305800 MemberID=93 </weight>
<weight id="1457" MUR="1.0" MUF="1.0" PDF="305894" > PDF=305800 MemberID=94 </weight>
<weight id="1458" MUR="1.0" MUF="1.0" PDF="305895" > PDF=305800 MemberID=95 </weight>
<weight id="1459" MUR="1.0" MUF="1.0" PDF="305896" > PDF=305800 MemberID=96 </weight>
<weight id="1460" MUR="1.0" MUF="1.0" PDF="305897" > PDF=305800 MemberID=97 </weight>
<weight id="1461" MUR="1.0" MUF="1.0" PDF="305898" > PDF=305800 MemberID=98 </weight>
<weight id="1462" MUR="1.0" MUF="1.0" PDF="305899" > PDF=305800 MemberID=99 </weight>
<weight id="1463" MUR="1.0" MUF="1.0" PDF="305900" > PDF=305800 MemberID=100 </weight>
<weight id="1464" MUR="1.0" MUF="1.0" PDF="305901" > PDF=305800 MemberID=101 </weight>
<weight id="1465" MUR="1.0" MUF="1.0" PDF="305902" > PDF=305800 MemberID=102 </weight>
</weightgroup> # PDFSET -> PDFSET
<weightgroup name="CT14nnlo" combine="hessian"> # 13000: CT14nnlo, 3-loop PDF evolution with HOPPET and HOPPET alphas_s running solution. This set has 57 member PDFs. mem=0 --.gt. central value; mem=1-56 --.gt. eigenvector sets 90%
<weight id="1466" MUR="1.0" MUF="1.0" PDF="13000" > PDF=13000 MemberID=0 </weight>
<weight id="1467" MUR="1.0" MUF="1.0" PDF="13001" > PDF=13000 MemberID=1 </weight>
<weight id="1468" MUR="1.0" MUF="1.0" PDF="13002" > PDF=13000 MemberID=2 </weight>
<weight id="1469" MUR="1.0" MUF="1.0" PDF="13003" > PDF=13000 MemberID=3 </weight>
<weight id="1470" MUR="1.0" MUF="1.0" PDF="13004" > PDF=13000 MemberID=4 </weight>
<weight id="1471" MUR="1.0" MUF="1.0" PDF="13005" > PDF=13000 MemberID=5 </weight>
<weight id="1472" MUR="1.0" MUF="1.0" PDF="13006" > PDF=13000 MemberID=6 </weight>
<weight id="1473" MUR="1.0" MUF="1.0" PDF="13007" > PDF=13000 MemberID=7 </weight>
<weight id="1474" MUR="1.0" MUF="1.0" PDF="13008" > PDF=13000 MemberID=8 </weight>
<weight id="1475" MUR="1.0" MUF="1.0" PDF="13009" > PDF=13000 MemberID=9 </weight>
<weight id="1476" MUR="1.0" MUF="1.0" PDF="13010" > PDF=13000 MemberID=10 </weight>
<weight id="1477" MUR="1.0" MUF="1.0" PDF="13011" > PDF=13000 MemberID=11 </weight>
<weight id="1478" MUR="1.0" MUF="1.0" PDF="13012" > PDF=13000 MemberID=12 </weight>
<weight id="1479" MUR="1.0" MUF="1.0" PDF="13013" > PDF=13000 MemberID=13 </weight>
<weight id="1480" MUR="1.0" MUF="1.0" PDF="13014" > PDF=13000 MemberID=14 </weight>
<weight id="1481" MUR="1.0" MUF="1.0" PDF="13015" > PDF=13000 MemberID=15 </weight>
<weight id="1482" MUR="1.0" MUF="1.0" PDF="13016" > PDF=13000 MemberID=16 </weight>
<weight id="1483" MUR="1.0" MUF="1.0" PDF="13017" > PDF=13000 MemberID=17 </weight>
<weight id="1484" MUR="1.0" MUF="1.0" PDF="13018" > PDF=13000 MemberID=18 </weight>
<weight id="1485" MUR="1.0" MUF="1.0" PDF="13019" > PDF=13000 MemberID=19 </weight>
<weight id="1486" MUR="1.0" MUF="1.0" PDF="13020" > PDF=13000 MemberID=20 </weight>
<weight id="1487" MUR="1.0" MUF="1.0" PDF="13021" > PDF=13000 MemberID=21 </weight>
<weight id="1488" MUR="1.0" MUF="1.0" PDF="13022" > PDF=13000 MemberID=22 </weight>
<weight id="1489" MUR="1.0" MUF="1.0" PDF="13023" > PDF=13000 MemberID=23 </weight>
<weight id="1490" MUR="1.0" MUF="1.0" PDF="13024" > PDF=13000 MemberID=24 </weight>
<weight id="1491" MUR="1.0" MUF="1.0" PDF="13025" > PDF=13000 MemberID=25 </weight>
<weight id="1492" MUR="1.0" MUF="1.0" PDF="13026" > PDF=13000 MemberID=26 </weight>
<weight id="1493" MUR="1.0" MUF="1.0" PDF="13027" > PDF=13000 MemberID=27 </weight>
<weight id="1494" MUR="1.0" MUF="1.0" PDF="13028" > PDF=13000 MemberID=28 </weight>
<weight id="1495" MUR="1.0" MUF="1.0" PDF="13029" > PDF=13000 MemberID=29 </weight>
<weight id="1496" MUR="1.0" MUF="1.0" PDF="13030" > PDF=13000 MemberID=30 </weight>
<weight id="1497" MUR="1.0" MUF="1.0" PDF="13031" > PDF=13000 MemberID=31 </weight>
<weight id="1498" MUR="1.0" MUF="1.0" PDF="13032" > PDF=13000 MemberID=32 </weight>
<weight id="1499" MUR="1.0" MUF="1.0" PDF="13033" > PDF=13000 MemberID=33 </weight>
<weight id="1500" MUR="1.0" MUF="1.0" PDF="13034" > PDF=13000 MemberID=34 </weight>
<weight id="1501" MUR="1.0" MUF="1.0" PDF="13035" > PDF=13000 MemberID=35 </weight>
<weight id="1502" MUR="1.0" MUF="1.0" PDF="13036" > PDF=13000 MemberID=36 </weight>
<weight id="1503" MUR="1.0" MUF="1.0" PDF="13037" > PDF=13000 MemberID=37 </weight>
<weight id="1504" MUR="1.0" MUF="1.0" PDF="13038" > PDF=13000 MemberID=38 </weight>
<weight id="1505" MUR="1.0" MUF="1.0" PDF="13039" > PDF=13000 MemberID=39 </weight>
<weight id="1506" MUR="1.0" MUF="1.0" PDF="13040" > PDF=13000 MemberID=40 </weight>
<weight id="1507" MUR="1.0" MUF="1.0" PDF="13041" > PDF=13000 MemberID=41 </weight>
<weight id="1508" MUR="1.0" MUF="1.0" PDF="13042" > PDF=13000 MemberID=42 </weight>
<weight id="1509" MUR="1.0" MUF="1.0" PDF="13043" > PDF=13000 MemberID=43 </weight>
<weight id="1510" MUR="1.0" MUF="1.0" PDF="13044" > PDF=13000 MemberID=44 </weight>
<weight id="1511" MUR="1.0" MUF="1.0" PDF="13045" > PDF=13000 MemberID=45 </weight>
<weight id="1512" MUR="1.0" MUF="1.0" PDF="13046" > PDF=13000 MemberID=46 </weight>
<weight id="1513" MUR="1.0" MUF="1.0" PDF="13047" > PDF=13000 MemberID=47 </weight>
<weight id="1514" MUR="1.0" MUF="1.0" PDF="13048" > PDF=13000 MemberID=48 </weight>
<weight id="1515" MUR="1.0" MUF="1.0" PDF="13049" > PDF=13000 MemberID=49 </weight>
<weight id="1516" MUR="1.0" MUF="1.0" PDF="13050" > PDF=13000 MemberID=50 </weight>
<weight id="1517" MUR="1.0" MUF="1.0" PDF="13051" > PDF=13000 MemberID=51 </weight>
<weight id="1518" MUR="1.0" MUF="1.0" PDF="13052" > PDF=13000 MemberID=52 </weight>
<weight id="1519" MUR="1.0" MUF="1.0" PDF="13053" > PDF=13000 MemberID=53 </weight>
<weight id="1520" MUR="1.0" MUF="1.0" PDF="13054" > PDF=13000 MemberID=54 </weight>
<weight id="1521" MUR="1.0" MUF="1.0" PDF="13055" > PDF=13000 MemberID=55 </weight>
<weight id="1522" MUR="1.0" MUF="1.0" PDF="13056" > PDF=13000 MemberID=56 </weight>
</weightgroup> # PDFSET -> PDF
<weight id="1523" MUR="1.0" MUF="1.0" PDF="13065" > PDF=13065 MemberID=0 </weight>
<weight id="1524" MUR="1.0" MUF="1.0" PDF="13069" > PDF=13069 MemberID=0 </weight>
<weightgroup name="CT14nlo" combine="hessian"> # 13100: CT14nlo, 2-loop PDF evolution with HOPPET and HOPPET alphas_s running solution. This set has 57 member PDFs. mem=0 --.gt. central value; mem=1-56 --.gt. eigenvector sets 90%
<weight id="1525" MUR="1.0" MUF="1.0" PDF="13100" > PDF=13100 MemberID=0 </weight>
<weight id="1526" MUR="1.0" MUF="1.0" PDF="13101" > PDF=13100 MemberID=1 </weight>
<weight id="1527" MUR="1.0" MUF="1.0" PDF="13102" > PDF=13100 MemberID=2 </weight>
<weight id="1528" MUR="1.0" MUF="1.0" PDF="13103" > PDF=13100 MemberID=3 </weight>
<weight id="1529" MUR="1.0" MUF="1.0" PDF="13104" > PDF=13100 MemberID=4 </weight>
<weight id="1530" MUR="1.0" MUF="1.0" PDF="13105" > PDF=13100 MemberID=5 </weight>
<weight id="1531" MUR="1.0" MUF="1.0" PDF="13106" > PDF=13100 MemberID=6 </weight>
<weight id="1532" MUR="1.0" MUF="1.0" PDF="13107" > PDF=13100 MemberID=7 </weight>
<weight id="1533" MUR="1.0" MUF="1.0" PDF="13108" > PDF=13100 MemberID=8 </weight>
<weight id="1534" MUR="1.0" MUF="1.0" PDF="13109" > PDF=13100 MemberID=9 </weight>
<weight id="1535" MUR="1.0" MUF="1.0" PDF="13110" > PDF=13100 MemberID=10 </weight>
<weight id="1536" MUR="1.0" MUF="1.0" PDF="13111" > PDF=13100 MemberID=11 </weight>
<weight id="1537" MUR="1.0" MUF="1.0" PDF="13112" > PDF=13100 MemberID=12 </weight>
<weight id="1538" MUR="1.0" MUF="1.0" PDF="13113" > PDF=13100 MemberID=13 </weight>
<weight id="1539" MUR="1.0" MUF="1.0" PDF="13114" > PDF=13100 MemberID=14 </weight>
<weight id="1540" MUR="1.0" MUF="1.0" PDF="13115" > PDF=13100 MemberID=15 </weight>
<weight id="1541" MUR="1.0" MUF="1.0" PDF="13116" > PDF=13100 MemberID=16 </weight>
<weight id="1542" MUR="1.0" MUF="1.0" PDF="13117" > PDF=13100 MemberID=17 </weight>
<weight id="1543" MUR="1.0" MUF="1.0" PDF="13118" > PDF=13100 MemberID=18 </weight>
<weight id="1544" MUR="1.0" MUF="1.0" PDF="13119" > PDF=13100 MemberID=19 </weight>
<weight id="1545" MUR="1.0" MUF="1.0" PDF="13120" > PDF=13100 MemberID=20 </weight>
<weight id="1546" MUR="1.0" MUF="1.0" PDF="13121" > PDF=13100 MemberID=21 </weight>
<weight id="1547" MUR="1.0" MUF="1.0" PDF="13122" > PDF=13100 MemberID=22 </weight>
<weight id="1548" MUR="1.0" MUF="1.0" PDF="13123" > PDF=13100 MemberID=23 </weight>
<weight id="1549" MUR="1.0" MUF="1.0" PDF="13124" > PDF=13100 MemberID=24 </weight>
<weight id="1550" MUR="1.0" MUF="1.0" PDF="13125" > PDF=13100 MemberID=25 </weight>
<weight id="1551" MUR="1.0" MUF="1.0" PDF="13126" > PDF=13100 MemberID=26 </weight>
<weight id="1552" MUR="1.0" MUF="1.0" PDF="13127" > PDF=13100 MemberID=27 </weight>
<weight id="1553" MUR="1.0" MUF="1.0" PDF="13128" > PDF=13100 MemberID=28 </weight>
<weight id="1554" MUR="1.0" MUF="1.0" PDF="13129" > PDF=13100 MemberID=29 </weight>
<weight id="1555" MUR="1.0" MUF="1.0" PDF="13130" > PDF=13100 MemberID=30 </weight>
<weight id="1556" MUR="1.0" MUF="1.0" PDF="13131" > PDF=13100 MemberID=31 </weight>
<weight id="1557" MUR="1.0" MUF="1.0" PDF="13132" > PDF=13100 MemberID=32 </weight>
<weight id="1558" MUR="1.0" MUF="1.0" PDF="13133" > PDF=13100 MemberID=33 </weight>
<weight id="1559" MUR="1.0" MUF="1.0" PDF="13134" > PDF=13100 MemberID=34 </weight>
<weight id="1560" MUR="1.0" MUF="1.0" PDF="13135" > PDF=13100 MemberID=35 </weight>
<weight id="1561" MUR="1.0" MUF="1.0" PDF="13136" > PDF=13100 MemberID=36 </weight>
<weight id="1562" MUR="1.0" MUF="1.0" PDF="13137" > PDF=13100 MemberID=37 </weight>
<weight id="1563" MUR="1.0" MUF="1.0" PDF="13138" > PDF=13100 MemberID=38 </weight>
<weight id="1564" MUR="1.0" MUF="1.0" PDF="13139" > PDF=13100 MemberID=39 </weight>
<weight id="1565" MUR="1.0" MUF="1.0" PDF="13140" > PDF=13100 MemberID=40 </weight>
<weight id="1566" MUR="1.0" MUF="1.0" PDF="13141" > PDF=13100 MemberID=41 </weight>
<weight id="1567" MUR="1.0" MUF="1.0" PDF="13142" > PDF=13100 MemberID=42 </weight>
<weight id="1568" MUR="1.0" MUF="1.0" PDF="13143" > PDF=13100 MemberID=43 </weight>
<weight id="1569" MUR="1.0" MUF="1.0" PDF="13144" > PDF=13100 MemberID=44 </weight>
<weight id="1570" MUR="1.0" MUF="1.0" PDF="13145" > PDF=13100 MemberID=45 </weight>
<weight id="1571" MUR="1.0" MUF="1.0" PDF="13146" > PDF=13100 MemberID=46 </weight>
<weight id="1572" MUR="1.0" MUF="1.0" PDF="13147" > PDF=13100 MemberID=47 </weight>
<weight id="1573" MUR="1.0" MUF="1.0" PDF="13148" > PDF=13100 MemberID=48 </weight>
<weight id="1574" MUR="1.0" MUF="1.0" PDF="13149" > PDF=13100 MemberID=49 </weight>
<weight id="1575" MUR="1.0" MUF="1.0" PDF="13150" > PDF=13100 MemberID=50 </weight>
<weight id="1576" MUR="1.0" MUF="1.0" PDF="13151" > PDF=13100 MemberID=51 </weight>
<weight id="1577" MUR="1.0" MUF="1.0" PDF="13152" > PDF=13100 MemberID=52 </weight>
<weight id="1578" MUR="1.0" MUF="1.0" PDF="13153" > PDF=13100 MemberID=53 </weight>
<weight id="1579" MUR="1.0" MUF="1.0" PDF="13154" > PDF=13100 MemberID=54 </weight>
<weight id="1580" MUR="1.0" MUF="1.0" PDF="13155" > PDF=13100 MemberID=55 </weight>
<weight id="1581" MUR="1.0" MUF="1.0" PDF="13156" > PDF=13100 MemberID=56 </weight>
</weightgroup> # PDFSET -> PDF
<weight id="1582" MUR="1.0" MUF="1.0" PDF="13163" > PDF=13163 MemberID=0 </weight>
<weight id="1583" MUR="1.0" MUF="1.0" PDF="13167" > PDF=13167 MemberID=0 </weight>
<weight id="1584" MUR="1.0" MUF="1.0" PDF="13200" > PDF=13200 MemberID=0 </weight>
<weightgroup name="MMHT2014nlo68clas118" combine="hessian"> # 25200: MMHT 2014 NLO (68% C.L.) alpha_S=0.118. mem=0 ; central value; mem=1-50 ; 25 eigenvector sets (+/- directions). See Section 6 of arXiv:0901.0002 for error calculation. Web address: www.hep.ucl.ac.uk/mmht
<weight id="1585" MUR="1.0" MUF="1.0" PDF="25200" > PDF=25200 MemberID=0 </weight>
<weight id="1586" MUR="1.0" MUF="1.0" PDF="25201" > PDF=25200 MemberID=1 </weight>
<weight id="1587" MUR="1.0" MUF="1.0" PDF="25202" > PDF=25200 MemberID=2 </weight>
<weight id="1588" MUR="1.0" MUF="1.0" PDF="25203" > PDF=25200 MemberID=3 </weight>
<weight id="1589" MUR="1.0" MUF="1.0" PDF="25204" > PDF=25200 MemberID=4 </weight>
<weight id="1590" MUR="1.0" MUF="1.0" PDF="25205" > PDF=25200 MemberID=5 </weight>
<weight id="1591" MUR="1.0" MUF="1.0" PDF="25206" > PDF=25200 MemberID=6 </weight>
<weight id="1592" MUR="1.0" MUF="1.0" PDF="25207" > PDF=25200 MemberID=7 </weight>
<weight id="1593" MUR="1.0" MUF="1.0" PDF="25208" > PDF=25200 MemberID=8 </weight>
<weight id="1594" MUR="1.0" MUF="1.0" PDF="25209" > PDF=25200 MemberID=9 </weight>
<weight id="1595" MUR="1.0" MUF="1.0" PDF="25210" > PDF=25200 MemberID=10 </weight>
<weight id="1596" MUR="1.0" MUF="1.0" PDF="25211" > PDF=25200 MemberID=11 </weight>
<weight id="1597" MUR="1.0" MUF="1.0" PDF="25212" > PDF=25200 MemberID=12 </weight>
<weight id="1598" MUR="1.0" MUF="1.0" PDF="25213" > PDF=25200 MemberID=13 </weight>
<weight id="1599" MUR="1.0" MUF="1.0" PDF="25214" > PDF=25200 MemberID=14 </weight>
<weight id="1600" MUR="1.0" MUF="1.0" PDF="25215" > PDF=25200 MemberID=15 </weight>
<weight id="1601" MUR="1.0" MUF="1.0" PDF="25216" > PDF=25200 MemberID=16 </weight>
<weight id="1602" MUR="1.0" MUF="1.0" PDF="25217" > PDF=25200 MemberID=17 </weight>
<weight id="1603" MUR="1.0" MUF="1.0" PDF="25218" > PDF=25200 MemberID=18 </weight>
<weight id="1604" MUR="1.0" MUF="1.0" PDF="25219" > PDF=25200 MemberID=19 </weight>
<weight id="1605" MUR="1.0" MUF="1.0" PDF="25220" > PDF=25200 MemberID=20 </weight>
<weight id="1606" MUR="1.0" MUF="1.0" PDF="25221" > PDF=25200 MemberID=21 </weight>
<weight id="1607" MUR="1.0" MUF="1.0" PDF="25222" > PDF=25200 MemberID=22 </weight>
<weight id="1608" MUR="1.0" MUF="1.0" PDF="25223" > PDF=25200 MemberID=23 </weight>
<weight id="1609" MUR="1.0" MUF="1.0" PDF="25224" > PDF=25200 MemberID=24 </weight>
<weight id="1610" MUR="1.0" MUF="1.0" PDF="25225" > PDF=25200 MemberID=25 </weight>
<weight id="1611" MUR="1.0" MUF="1.0" PDF="25226" > PDF=25200 MemberID=26 </weight>
<weight id="1612" MUR="1.0" MUF="1.0" PDF="25227" > PDF=25200 MemberID=27 </weight>
<weight id="1613" MUR="1.0" MUF="1.0" PDF="25228" > PDF=25200 MemberID=28 </weight>
<weight id="1614" MUR="1.0" MUF="1.0" PDF="25229" > PDF=25200 MemberID=29 </weight>
<weight id="1615" MUR="1.0" MUF="1.0" PDF="25230" > PDF=25200 MemberID=30 </weight>
<weight id="1616" MUR="1.0" MUF="1.0" PDF="25231" > PDF=25200 MemberID=31 </weight>
<weight id="1617" MUR="1.0" MUF="1.0" PDF="25232" > PDF=25200 MemberID=32 </weight>
<weight id="1618" MUR="1.0" MUF="1.0" PDF="25233" > PDF=25200 MemberID=33 </weight>
<weight id="1619" MUR="1.0" MUF="1.0" PDF="25234" > PDF=25200 MemberID=34 </weight>
<weight id="1620" MUR="1.0" MUF="1.0" PDF="25235" > PDF=25200 MemberID=35 </weight>
<weight id="1621" MUR="1.0" MUF="1.0" PDF="25236" > PDF=25200 MemberID=36 </weight>
<weight id="1622" MUR="1.0" MUF="1.0" PDF="25237" > PDF=25200 MemberID=37 </weight>
<weight id="1623" MUR="1.0" MUF="1.0" PDF="25238" > PDF=25200 MemberID=38 </weight>
<weight id="1624" MUR="1.0" MUF="1.0" PDF="25239" > PDF=25200 MemberID=39 </weight>
<weight id="1625" MUR="1.0" MUF="1.0" PDF="25240" > PDF=25200 MemberID=40 </weight>
<weight id="1626" MUR="1.0" MUF="1.0" PDF="25241" > PDF=25200 MemberID=41 </weight>
<weight id="1627" MUR="1.0" MUF="1.0" PDF="25242" > PDF=25200 MemberID=42 </weight>
<weight id="1628" MUR="1.0" MUF="1.0" PDF="25243" > PDF=25200 MemberID=43 </weight>
<weight id="1629" MUR="1.0" MUF="1.0" PDF="25244" > PDF=25200 MemberID=44 </weight>
<weight id="1630" MUR="1.0" MUF="1.0" PDF="25245" > PDF=25200 MemberID=45 </weight>
<weight id="1631" MUR="1.0" MUF="1.0" PDF="25246" > PDF=25200 MemberID=46 </weight>
<weight id="1632" MUR="1.0" MUF="1.0" PDF="25247" > PDF=25200 MemberID=47 </weight>
<weight id="1633" MUR="1.0" MUF="1.0" PDF="25248" > PDF=25200 MemberID=48 </weight>
<weight id="1634" MUR="1.0" MUF="1.0" PDF="25249" > PDF=25200 MemberID=49 </weight>
<weight id="1635" MUR="1.0" MUF="1.0" PDF="25250" > PDF=25200 MemberID=50 </weight>
</weightgroup> # PDFSET -> PDFSET
<weightgroup name="MMHT2014nnlo68cl" combine="hessian"> # 25300: MMHT 2014 NNLO (68% C.L.). mem=0 ; central value; mem=1-50 ; 25 eigenvector sets (+/- directions). See Section 6 of arXiv:0901.0002 for error calculation. Web address: www.hep.ucl.ac.uk/mmht
<weight id="1636" MUR="1.0" MUF="1.0" PDF="25300" > PDF=25300 MemberID=0 </weight>
<weight id="1637" MUR="1.0" MUF="1.0" PDF="25301" > PDF=25300 MemberID=1 </weight>
<weight id="1638" MUR="1.0" MUF="1.0" PDF="25302" > PDF=25300 MemberID=2 </weight>
<weight id="1639" MUR="1.0" MUF="1.0" PDF="25303" > PDF=25300 MemberID=3 </weight>
<weight id="1640" MUR="1.0" MUF="1.0" PDF="25304" > PDF=25300 MemberID=4 </weight>
<weight id="1641" MUR="1.0" MUF="1.0" PDF="25305" > PDF=25300 MemberID=5 </weight>
<weight id="1642" MUR="1.0" MUF="1.0" PDF="25306" > PDF=25300 MemberID=6 </weight>
<weight id="1643" MUR="1.0" MUF="1.0" PDF="25307" > PDF=25300 MemberID=7 </weight>
<weight id="1644" MUR="1.0" MUF="1.0" PDF="25308" > PDF=25300 MemberID=8 </weight>
<weight id="1645" MUR="1.0" MUF="1.0" PDF="25309" > PDF=25300 MemberID=9 </weight>
<weight id="1646" MUR="1.0" MUF="1.0" PDF="25310" > PDF=25300 MemberID=10 </weight>
<weight id="1647" MUR="1.0" MUF="1.0" PDF="25311" > PDF=25300 MemberID=11 </weight>
<weight id="1648" MUR="1.0" MUF="1.0" PDF="25312" > PDF=25300 MemberID=12 </weight>
<weight id="1649" MUR="1.0" MUF="1.0" PDF="25313" > PDF=25300 MemberID=13 </weight>
<weight id="1650" MUR="1.0" MUF="1.0" PDF="25314" > PDF=25300 MemberID=14 </weight>
<weight id="1651" MUR="1.0" MUF="1.0" PDF="25315" > PDF=25300 MemberID=15 </weight>
<weight id="1652" MUR="1.0" MUF="1.0" PDF="25316" > PDF=25300 MemberID=16 </weight>
<weight id="1653" MUR="1.0" MUF="1.0" PDF="25317" > PDF=25300 MemberID=17 </weight>
<weight id="1654" MUR="1.0" MUF="1.0" PDF="25318" > PDF=25300 MemberID=18 </weight>
<weight id="1655" MUR="1.0" MUF="1.0" PDF="25319" > PDF=25300 MemberID=19 </weight>
<weight id="1656" MUR="1.0" MUF="1.0" PDF="25320" > PDF=25300 MemberID=20 </weight>
<weight id="1657" MUR="1.0" MUF="1.0" PDF="25321" > PDF=25300 MemberID=21 </weight>
<weight id="1658" MUR="1.0" MUF="1.0" PDF="25322" > PDF=25300 MemberID=22 </weight>
<weight id="1659" MUR="1.0" MUF="1.0" PDF="25323" > PDF=25300 MemberID=23 </weight>
<weight id="1660" MUR="1.0" MUF="1.0" PDF="25324" > PDF=25300 MemberID=24 </weight>
<weight id="1661" MUR="1.0" MUF="1.0" PDF="25325" > PDF=25300 MemberID=25 </weight>
<weight id="1662" MUR="1.0" MUF="1.0" PDF="25326" > PDF=25300 MemberID=26 </weight>
<weight id="1663" MUR="1.0" MUF="1.0" PDF="25327" > PDF=25300 MemberID=27 </weight>
<weight id="1664" MUR="1.0" MUF="1.0" PDF="25328" > PDF=25300 MemberID=28 </weight>
<weight id="1665" MUR="1.0" MUF="1.0" PDF="25329" > PDF=25300 MemberID=29 </weight>
<weight id="1666" MUR="1.0" MUF="1.0" PDF="25330" > PDF=25300 MemberID=30 </weight>
<weight id="1667" MUR="1.0" MUF="1.0" PDF="25331" > PDF=25300 MemberID=31 </weight>
<weight id="1668" MUR="1.0" MUF="1.0" PDF="25332" > PDF=25300 MemberID=32 </weight>
<weight id="1669" MUR="1.0" MUF="1.0" PDF="25333" > PDF=25300 MemberID=33 </weight>
<weight id="1670" MUR="1.0" MUF="1.0" PDF="25334" > PDF=25300 MemberID=34 </weight>
<weight id="1671" MUR="1.0" MUF="1.0" PDF="25335" > PDF=25300 MemberID=35 </weight>
<weight id="1672" MUR="1.0" MUF="1.0" PDF="25336" > PDF=25300 MemberID=36 </weight>
<weight id="1673" MUR="1.0" MUF="1.0" PDF="25337" > PDF=25300 MemberID=37 </weight>
<weight id="1674" MUR="1.0" MUF="1.0" PDF="25338" > PDF=25300 MemberID=38 </weight>
<weight id="1675" MUR="1.0" MUF="1.0" PDF="25339" > PDF=25300 MemberID=39 </weight>
<weight id="1676" MUR="1.0" MUF="1.0" PDF="25340" > PDF=25300 MemberID=40 </weight>
<weight id="1677" MUR="1.0" MUF="1.0" PDF="25341" > PDF=25300 MemberID=41 </weight>
<weight id="1678" MUR="1.0" MUF="1.0" PDF="25342" > PDF=25300 MemberID=42 </weight>
<weight id="1679" MUR="1.0" MUF="1.0" PDF="25343" > PDF=25300 MemberID=43 </weight>
<weight id="1680" MUR="1.0" MUF="1.0" PDF="25344" > PDF=25300 MemberID=44 </weight>
<weight id="1681" MUR="1.0" MUF="1.0" PDF="25345" > PDF=25300 MemberID=45 </weight>
<weight id="1682" MUR="1.0" MUF="1.0" PDF="25346" > PDF=25300 MemberID=46 </weight>
<weight id="1683" MUR="1.0" MUF="1.0" PDF="25347" > PDF=25300 MemberID=47 </weight>
<weight id="1684" MUR="1.0" MUF="1.0" PDF="25348" > PDF=25300 MemberID=48 </weight>
<weight id="1685" MUR="1.0" MUF="1.0" PDF="25349" > PDF=25300 MemberID=49 </weight>
<weight id="1686" MUR="1.0" MUF="1.0" PDF="25350" > PDF=25300 MemberID=50 </weight>
</weightgroup> # PDFSET -> PDF
<weight id="1687" MUR="1.0" MUF="1.0" PDF="25000" > PDF=25000 MemberID=0 </weight>
<weightgroup name="ABMP16als118_5_nnlo" combine="symmhessian"> # 42780: NNLO 5-flavour PDFs with different alphas_s for the ABMP16 set
<weight id="1688" MUR="1.0" MUF="1.0" PDF="42780" > PDF=42780 MemberID=0 </weight>
<weight id="1689" MUR="1.0" MUF="1.0" PDF="42781" > PDF=42780 MemberID=1 </weight>
<weight id="1690" MUR="1.0" MUF="1.0" PDF="42782" > PDF=42780 MemberID=2 </weight>
<weight id="1691" MUR="1.0" MUF="1.0" PDF="42783" > PDF=42780 MemberID=3 </weight>
<weight id="1692" MUR="1.0" MUF="1.0" PDF="42784" > PDF=42780 MemberID=4 </weight>
<weight id="1693" MUR="1.0" MUF="1.0" PDF="42785" > PDF=42780 MemberID=5 </weight>
<weight id="1694" MUR="1.0" MUF="1.0" PDF="42786" > PDF=42780 MemberID=6 </weight>
<weight id="1695" MUR="1.0" MUF="1.0" PDF="42787" > PDF=42780 MemberID=7 </weight>
<weight id="1696" MUR="1.0" MUF="1.0" PDF="42788" > PDF=42780 MemberID=8 </weight>
<weight id="1697" MUR="1.0" MUF="1.0" PDF="42789" > PDF=42780 MemberID=9 </weight>
<weight id="1698" MUR="1.0" MUF="1.0" PDF="42790" > PDF=42780 MemberID=10 </weight>
<weight id="1699" MUR="1.0" MUF="1.0" PDF="42791" > PDF=42780 MemberID=11 </weight>
<weight id="1700" MUR="1.0" MUF="1.0" PDF="42792" > PDF=42780 MemberID=12 </weight>
<weight id="1701" MUR="1.0" MUF="1.0" PDF="42793" > PDF=42780 MemberID=13 </weight>
<weight id="1702" MUR="1.0" MUF="1.0" PDF="42794" > PDF=42780 MemberID=14 </weight>
<weight id="1703" MUR="1.0" MUF="1.0" PDF="42795" > PDF=42780 MemberID=15 </weight>
<weight id="1704" MUR="1.0" MUF="1.0" PDF="42796" > PDF=42780 MemberID=16 </weight>
<weight id="1705" MUR="1.0" MUF="1.0" PDF="42797" > PDF=42780 MemberID=17 </weight>
<weight id="1706" MUR="1.0" MUF="1.0" PDF="42798" > PDF=42780 MemberID=18 </weight>
<weight id="1707" MUR="1.0" MUF="1.0" PDF="42799" > PDF=42780 MemberID=19 </weight>
<weight id="1708" MUR="1.0" MUF="1.0" PDF="42800" > PDF=42780 MemberID=20 </weight>
<weight id="1709" MUR="1.0" MUF="1.0" PDF="42801" > PDF=42780 MemberID=21 </weight>
<weight id="1710" MUR="1.0" MUF="1.0" PDF="42802" > PDF=42780 MemberID=22 </weight>
<weight id="1711" MUR="1.0" MUF="1.0" PDF="42803" > PDF=42780 MemberID=23 </weight>
<weight id="1712" MUR="1.0" MUF="1.0" PDF="42804" > PDF=42780 MemberID=24 </weight>
<weight id="1713" MUR="1.0" MUF="1.0" PDF="42805" > PDF=42780 MemberID=25 </weight>
<weight id="1714" MUR="1.0" MUF="1.0" PDF="42806" > PDF=42780 MemberID=26 </weight>
<weight id="1715" MUR="1.0" MUF="1.0" PDF="42807" > PDF=42780 MemberID=27 </weight>
<weight id="1716" MUR="1.0" MUF="1.0" PDF="42808" > PDF=42780 MemberID=28 </weight>
<weight id="1717" MUR="1.0" MUF="1.0" PDF="42809" > PDF=42780 MemberID=29 </weight>
</weightgroup> # PDFSET -> PDFSET
<weightgroup name="PDF4LHC15_nlo_100_pdfas" combine="symmhessian+as"> # 90200: PDF4LHC15_nlo_100_pdfas. mem=0 ; alphas(MZ)=0.118 central value; mem=1-100 ; PDF symmetric eigenvectors; mem=101 ; alphas(MZ)=0.1165 central value; mem=102 ; alphas(MZ)=0.1195
<weight id="1718" MUR="1.0" MUF="1.0" PDF="90200" > PDF=90200 MemberID=0 </weight>
<weight id="1719" MUR="1.0" MUF="1.0" PDF="90201" > PDF=90200 MemberID=1 </weight>
<weight id="1720" MUR="1.0" MUF="1.0" PDF="90202" > PDF=90200 MemberID=2 </weight>
<weight id="1721" MUR="1.0" MUF="1.0" PDF="90203" > PDF=90200 MemberID=3 </weight>
<weight id="1722" MUR="1.0" MUF="1.0" PDF="90204" > PDF=90200 MemberID=4 </weight>
<weight id="1723" MUR="1.0" MUF="1.0" PDF="90205" > PDF=90200 MemberID=5 </weight>
<weight id="1724" MUR="1.0" MUF="1.0" PDF="90206" > PDF=90200 MemberID=6 </weight>
<weight id="1725" MUR="1.0" MUF="1.0" PDF="90207" > PDF=90200 MemberID=7 </weight>
<weight id="1726" MUR="1.0" MUF="1.0" PDF="90208" > PDF=90200 MemberID=8 </weight>
<weight id="1727" MUR="1.0" MUF="1.0" PDF="90209" > PDF=90200 MemberID=9 </weight>
<weight id="1728" MUR="1.0" MUF="1.0" PDF="90210" > PDF=90200 MemberID=10 </weight>
<weight id="1729" MUR="1.0" MUF="1.0" PDF="90211" > PDF=90200 MemberID=11 </weight>
<weight id="1730" MUR="1.0" MUF="1.0" PDF="90212" > PDF=90200 MemberID=12 </weight>
<weight id="1731" MUR="1.0" MUF="1.0" PDF="90213" > PDF=90200 MemberID=13 </weight>
<weight id="1732" MUR="1.0" MUF="1.0" PDF="90214" > PDF=90200 MemberID=14 </weight>
<weight id="1733" MUR="1.0" MUF="1.0" PDF="90215" > PDF=90200 MemberID=15 </weight>
<weight id="1734" MUR="1.0" MUF="1.0" PDF="90216" > PDF=90200 MemberID=16 </weight>
<weight id="1735" MUR="1.0" MUF="1.0" PDF="90217" > PDF=90200 MemberID=17 </weight>
<weight id="1736" MUR="1.0" MUF="1.0" PDF="90218" > PDF=90200 MemberID=18 </weight>
<weight id="1737" MUR="1.0" MUF="1.0" PDF="90219" > PDF=90200 MemberID=19 </weight>
<weight id="1738" MUR="1.0" MUF="1.0" PDF="90220" > PDF=90200 MemberID=20 </weight>
<weight id="1739" MUR="1.0" MUF="1.0" PDF="90221" > PDF=90200 MemberID=21 </weight>
<weight id="1740" MUR="1.0" MUF="1.0" PDF="90222" > PDF=90200 MemberID=22 </weight>
<weight id="1741" MUR="1.0" MUF="1.0" PDF="90223" > PDF=90200 MemberID=23 </weight>
<weight id="1742" MUR="1.0" MUF="1.0" PDF="90224" > PDF=90200 MemberID=24 </weight>
<weight id="1743" MUR="1.0" MUF="1.0" PDF="90225" > PDF=90200 MemberID=25 </weight>
<weight id="1744" MUR="1.0" MUF="1.0" PDF="90226" > PDF=90200 MemberID=26 </weight>
<weight id="1745" MUR="1.0" MUF="1.0" PDF="90227" > PDF=90200 MemberID=27 </weight>
<weight id="1746" MUR="1.0" MUF="1.0" PDF="90228" > PDF=90200 MemberID=28 </weight>
<weight id="1747" MUR="1.0" MUF="1.0" PDF="90229" > PDF=90200 MemberID=29 </weight>
<weight id="1748" MUR="1.0" MUF="1.0" PDF="90230" > PDF=90200 MemberID=30 </weight>
<weight id="1749" MUR="1.0" MUF="1.0" PDF="90231" > PDF=90200 MemberID=31 </weight>
<weight id="1750" MUR="1.0" MUF="1.0" PDF="90232" > PDF=90200 MemberID=32 </weight>
<weight id="1751" MUR="1.0" MUF="1.0" PDF="90233" > PDF=90200 MemberID=33 </weight>
<weight id="1752" MUR="1.0" MUF="1.0" PDF="90234" > PDF=90200 MemberID=34 </weight>
<weight id="1753" MUR="1.0" MUF="1.0" PDF="90235" > PDF=90200 MemberID=35 </weight>
<weight id="1754" MUR="1.0" MUF="1.0" PDF="90236" > PDF=90200 MemberID=36 </weight>
<weight id="1755" MUR="1.0" MUF="1.0" PDF="90237" > PDF=90200 MemberID=37 </weight>
<weight id="1756" MUR="1.0" MUF="1.0" PDF="90238" > PDF=90200 MemberID=38 </weight>
<weight id="1757" MUR="1.0" MUF="1.0" PDF="90239" > PDF=90200 MemberID=39 </weight>
<weight id="1758" MUR="1.0" MUF="1.0" PDF="90240" > PDF=90200 MemberID=40 </weight>
<weight id="1759" MUR="1.0" MUF="1.0" PDF="90241" > PDF=90200 MemberID=41 </weight>
<weight id="1760" MUR="1.0" MUF="1.0" PDF="90242" > PDF=90200 MemberID=42 </weight>
<weight id="1761" MUR="1.0" MUF="1.0" PDF="90243" > PDF=90200 MemberID=43 </weight>
<weight id="1762" MUR="1.0" MUF="1.0" PDF="90244" > PDF=90200 MemberID=44 </weight>
<weight id="1763" MUR="1.0" MUF="1.0" PDF="90245" > PDF=90200 MemberID=45 </weight>
<weight id="1764" MUR="1.0" MUF="1.0" PDF="90246" > PDF=90200 MemberID=46 </weight>
<weight id="1765" MUR="1.0" MUF="1.0" PDF="90247" > PDF=90200 MemberID=47 </weight>
<weight id="1766" MUR="1.0" MUF="1.0" PDF="90248" > PDF=90200 MemberID=48 </weight>
<weight id="1767" MUR="1.0" MUF="1.0" PDF="90249" > PDF=90200 MemberID=49 </weight>
<weight id="1768" MUR="1.0" MUF="1.0" PDF="90250" > PDF=90200 MemberID=50 </weight>
<weight id="1769" MUR="1.0" MUF="1.0" PDF="90251" > PDF=90200 MemberID=51 </weight>
<weight id="1770" MUR="1.0" MUF="1.0" PDF="90252" > PDF=90200 MemberID=52 </weight>
<weight id="1771" MUR="1.0" MUF="1.0" PDF="90253" > PDF=90200 MemberID=53 </weight>
<weight id="1772" MUR="1.0" MUF="1.0" PDF="90254" > PDF=90200 MemberID=54 </weight>
<weight id="1773" MUR="1.0" MUF="1.0" PDF="90255" > PDF=90200 MemberID=55 </weight>
<weight id="1774" MUR="1.0" MUF="1.0" PDF="90256" > PDF=90200 MemberID=56 </weight>
<weight id="1775" MUR="1.0" MUF="1.0" PDF="90257" > PDF=90200 MemberID=57 </weight>
<weight id="1776" MUR="1.0" MUF="1.0" PDF="90258" > PDF=90200 MemberID=58 </weight>
<weight id="1777" MUR="1.0" MUF="1.0" PDF="90259" > PDF=90200 MemberID=59 </weight>
<weight id="1778" MUR="1.0" MUF="1.0" PDF="90260" > PDF=90200 MemberID=60 </weight>
<weight id="1779" MUR="1.0" MUF="1.0" PDF="90261" > PDF=90200 MemberID=61 </weight>
<weight id="1780" MUR="1.0" MUF="1.0" PDF="90262" > PDF=90200 MemberID=62 </weight>
<weight id="1781" MUR="1.0" MUF="1.0" PDF="90263" > PDF=90200 MemberID=63 </weight>
<weight id="1782" MUR="1.0" MUF="1.0" PDF="90264" > PDF=90200 MemberID=64 </weight>
<weight id="1783" MUR="1.0" MUF="1.0" PDF="90265" > PDF=90200 MemberID=65 </weight>
<weight id="1784" MUR="1.0" MUF="1.0" PDF="90266" > PDF=90200 MemberID=66 </weight>
<weight id="1785" MUR="1.0" MUF="1.0" PDF="90267" > PDF=90200 MemberID=67 </weight>
<weight id="1786" MUR="1.0" MUF="1.0" PDF="90268" > PDF=90200 MemberID=68 </weight>
<weight id="1787" MUR="1.0" MUF="1.0" PDF="90269" > PDF=90200 MemberID=69 </weight>
<weight id="1788" MUR="1.0" MUF="1.0" PDF="90270" > PDF=90200 MemberID=70 </weight>
<weight id="1789" MUR="1.0" MUF="1.0" PDF="90271" > PDF=90200 MemberID=71 </weight>
<weight id="1790" MUR="1.0" MUF="1.0" PDF="90272" > PDF=90200 MemberID=72 </weight>
<weight id="1791" MUR="1.0" MUF="1.0" PDF="90273" > PDF=90200 MemberID=73 </weight>
<weight id="1792" MUR="1.0" MUF="1.0" PDF="90274" > PDF=90200 MemberID=74 </weight>
<weight id="1793" MUR="1.0" MUF="1.0" PDF="90275" > PDF=90200 MemberID=75 </weight>
<weight id="1794" MUR="1.0" MUF="1.0" PDF="90276" > PDF=90200 MemberID=76 </weight>
<weight id="1795" MUR="1.0" MUF="1.0" PDF="90277" > PDF=90200 MemberID=77 </weight>
<weight id="1796" MUR="1.0" MUF="1.0" PDF="90278" > PDF=90200 MemberID=78 </weight>
<weight id="1797" MUR="1.0" MUF="1.0" PDF="90279" > PDF=90200 MemberID=79 </weight>
<weight id="1798" MUR="1.0" MUF="1.0" PDF="90280" > PDF=90200 MemberID=80 </weight>
<weight id="1799" MUR="1.0" MUF="1.0" PDF="90281" > PDF=90200 MemberID=81 </weight>
<weight id="1800" MUR="1.0" MUF="1.0" PDF="90282" > PDF=90200 MemberID=82 </weight>
<weight id="1801" MUR="1.0" MUF="1.0" PDF="90283" > PDF=90200 MemberID=83 </weight>
<weight id="1802" MUR="1.0" MUF="1.0" PDF="90284" > PDF=90200 MemberID=84 </weight>
<weight id="1803" MUR="1.0" MUF="1.0" PDF="90285" > PDF=90200 MemberID=85 </weight>
<weight id="1804" MUR="1.0" MUF="1.0" PDF="90286" > PDF=90200 MemberID=86 </weight>
<weight id="1805" MUR="1.0" MUF="1.0" PDF="90287" > PDF=90200 MemberID=87 </weight>
<weight id="1806" MUR="1.0" MUF="1.0" PDF="90288" > PDF=90200 MemberID=88 </weight>
<weight id="1807" MUR="1.0" MUF="1.0" PDF="90289" > PDF=90200 MemberID=89 </weight>
<weight id="1808" MUR="1.0" MUF="1.0" PDF="90290" > PDF=90200 MemberID=90 </weight>
<weight id="1809" MUR="1.0" MUF="1.0" PDF="90291" > PDF=90200 MemberID=91 </weight>
<weight id="1810" MUR="1.0" MUF="1.0" PDF="90292" > PDF=90200 MemberID=92 </weight>
<weight id="1811" MUR="1.0" MUF="1.0" PDF="90293" > PDF=90200 MemberID=93 </weight>
<weight id="1812" MUR="1.0" MUF="1.0" PDF="90294" > PDF=90200 MemberID=94 </weight>
<weight id="1813" MUR="1.0" MUF="1.0" PDF="90295" > PDF=90200 MemberID=95 </weight>
<weight id="1814" MUR="1.0" MUF="1.0" PDF="90296" > PDF=90200 MemberID=96 </weight>
<weight id="1815" MUR="1.0" MUF="1.0" PDF="90297" > PDF=90200 MemberID=97 </weight>
<weight id="1816" MUR="1.0" MUF="1.0" PDF="90298" > PDF=90200 MemberID=98 </weight>
<weight id="1817" MUR="1.0" MUF="1.0" PDF="90299" > PDF=90200 MemberID=99 </weight>
<weight id="1818" MUR="1.0" MUF="1.0" PDF="90300" > PDF=90200 MemberID=100 </weight>
<weight id="1819" MUR="1.0" MUF="1.0" PDF="90301" > PDF=90200 MemberID=101 </weight>
<weight id="1820" MUR="1.0" MUF="1.0" PDF="90302" > PDF=90200 MemberID=102 </weight>
</weightgroup> # PDFSET -> PDFSET
<weightgroup name="PDF4LHC15_nnlo_100_pdfas" combine="symmhessian+as"> # 91200: PDF4LHC15_nnlo_100_pdfas. mem=0 ; alphas(MZ)=0.118 central value; mem=1-100 ; PDF symmetric eigenvectors; mem=101 ; alphas(MZ)=0.1165 central value; mem=102 ; alphas(MZ)=0.1195
<weight id="1821" MUR="1.0" MUF="1.0" PDF="91200" > PDF=91200 MemberID=0 </weight>
<weight id="1822" MUR="1.0" MUF="1.0" PDF="91201" > PDF=91200 MemberID=1 </weight>
<weight id="1823" MUR="1.0" MUF="1.0" PDF="91202" > PDF=91200 MemberID=2 </weight>
<weight id="1824" MUR="1.0" MUF="1.0" PDF="91203" > PDF=91200 MemberID=3 </weight>
<weight id="1825" MUR="1.0" MUF="1.0" PDF="91204" > PDF=91200 MemberID=4 </weight>
<weight id="1826" MUR="1.0" MUF="1.0" PDF="91205" > PDF=91200 MemberID=5 </weight>
<weight id="1827" MUR="1.0" MUF="1.0" PDF="91206" > PDF=91200 MemberID=6 </weight>
<weight id="1828" MUR="1.0" MUF="1.0" PDF="91207" > PDF=91200 MemberID=7 </weight>
<weight id="1829" MUR="1.0" MUF="1.0" PDF="91208" > PDF=91200 MemberID=8 </weight>
<weight id="1830" MUR="1.0" MUF="1.0" PDF="91209" > PDF=91200 MemberID=9 </weight>
<weight id="1831" MUR="1.0" MUF="1.0" PDF="91210" > PDF=91200 MemberID=10 </weight>
<weight id="1832" MUR="1.0" MUF="1.0" PDF="91211" > PDF=91200 MemberID=11 </weight>
<weight id="1833" MUR="1.0" MUF="1.0" PDF="91212" > PDF=91200 MemberID=12 </weight>
<weight id="1834" MUR="1.0" MUF="1.0" PDF="91213" > PDF=91200 MemberID=13 </weight>
<weight id="1835" MUR="1.0" MUF="1.0" PDF="91214" > PDF=91200 MemberID=14 </weight>
<weight id="1836" MUR="1.0" MUF="1.0" PDF="91215" > PDF=91200 MemberID=15 </weight>
<weight id="1837" MUR="1.0" MUF="1.0" PDF="91216" > PDF=91200 MemberID=16 </weight>
<weight id="1838" MUR="1.0" MUF="1.0" PDF="91217" > PDF=91200 MemberID=17 </weight>
<weight id="1839" MUR="1.0" MUF="1.0" PDF="91218" > PDF=91200 MemberID=18 </weight>
<weight id="1840" MUR="1.0" MUF="1.0" PDF="91219" > PDF=91200 MemberID=19 </weight>
<weight id="1841" MUR="1.0" MUF="1.0" PDF="91220" > PDF=91200 MemberID=20 </weight>
<weight id="1842" MUR="1.0" MUF="1.0" PDF="91221" > PDF=91200 MemberID=21 </weight>
<weight id="1843" MUR="1.0" MUF="1.0" PDF="91222" > PDF=91200 MemberID=22 </weight>
<weight id="1844" MUR="1.0" MUF="1.0" PDF="91223" > PDF=91200 MemberID=23 </weight>
<weight id="1845" MUR="1.0" MUF="1.0" PDF="91224" > PDF=91200 MemberID=24 </weight>
<weight id="1846" MUR="1.0" MUF="1.0" PDF="91225" > PDF=91200 MemberID=25 </weight>
<weight id="1847" MUR="1.0" MUF="1.0" PDF="91226" > PDF=91200 MemberID=26 </weight>
<weight id="1848" MUR="1.0" MUF="1.0" PDF="91227" > PDF=91200 MemberID=27 </weight>
<weight id="1849" MUR="1.0" MUF="1.0" PDF="91228" > PDF=91200 MemberID=28 </weight>
<weight id="1850" MUR="1.0" MUF="1.0" PDF="91229" > PDF=91200 MemberID=29 </weight>
<weight id="1851" MUR="1.0" MUF="1.0" PDF="91230" > PDF=91200 MemberID=30 </weight>
<weight id="1852" MUR="1.0" MUF="1.0" PDF="91231" > PDF=91200 MemberID=31 </weight>
<weight id="1853" MUR="1.0" MUF="1.0" PDF="91232" > PDF=91200 MemberID=32 </weight>
<weight id="1854" MUR="1.0" MUF="1.0" PDF="91233" > PDF=91200 MemberID=33 </weight>
<weight id="1855" MUR="1.0" MUF="1.0" PDF="91234" > PDF=91200 MemberID=34 </weight>
<weight id="1856" MUR="1.0" MUF="1.0" PDF="91235" > PDF=91200 MemberID=35 </weight>
<weight id="1857" MUR="1.0" MUF="1.0" PDF="91236" > PDF=91200 MemberID=36 </weight>
<weight id="1858" MUR="1.0" MUF="1.0" PDF="91237" > PDF=91200 MemberID=37 </weight>
<weight id="1859" MUR="1.0" MUF="1.0" PDF="91238" > PDF=91200 MemberID=38 </weight>
<weight id="1860" MUR="1.0" MUF="1.0" PDF="91239" > PDF=91200 MemberID=39 </weight>
<weight id="1861" MUR="1.0" MUF="1.0" PDF="91240" > PDF=91200 MemberID=40 </weight>
<weight id="1862" MUR="1.0" MUF="1.0" PDF="91241" > PDF=91200 MemberID=41 </weight>
<weight id="1863" MUR="1.0" MUF="1.0" PDF="91242" > PDF=91200 MemberID=42 </weight>
<weight id="1864" MUR="1.0" MUF="1.0" PDF="91243" > PDF=91200 MemberID=43 </weight>
<weight id="1865" MUR="1.0" MUF="1.0" PDF="91244" > PDF=91200 MemberID=44 </weight>
<weight id="1866" MUR="1.0" MUF="1.0" PDF="91245" > PDF=91200 MemberID=45 </weight>
<weight id="1867" MUR="1.0" MUF="1.0" PDF="91246" > PDF=91200 MemberID=46 </weight>
<weight id="1868" MUR="1.0" MUF="1.0" PDF="91247" > PDF=91200 MemberID=47 </weight>
<weight id="1869" MUR="1.0" MUF="1.0" PDF="91248" > PDF=91200 MemberID=48 </weight>
<weight id="1870" MUR="1.0" MUF="1.0" PDF="91249" > PDF=91200 MemberID=49 </weight>
<weight id="1871" MUR="1.0" MUF="1.0" PDF="91250" > PDF=91200 MemberID=50 </weight>
<weight id="1872" MUR="1.0" MUF="1.0" PDF="91251" > PDF=91200 MemberID=51 </weight>
<weight id="1873" MUR="1.0" MUF="1.0" PDF="91252" > PDF=91200 MemberID=52 </weight>
<weight id="1874" MUR="1.0" MUF="1.0" PDF="91253" > PDF=91200 MemberID=53 </weight>
<weight id="1875" MUR="1.0" MUF="1.0" PDF="91254" > PDF=91200 MemberID=54 </weight>
<weight id="1876" MUR="1.0" MUF="1.0" PDF="91255" > PDF=91200 MemberID=55 </weight>
<weight id="1877" MUR="1.0" MUF="1.0" PDF="91256" > PDF=91200 MemberID=56 </weight>
<weight id="1878" MUR="1.0" MUF="1.0" PDF="91257" > PDF=91200 MemberID=57 </weight>
<weight id="1879" MUR="1.0" MUF="1.0" PDF="91258" > PDF=91200 MemberID=58 </weight>
<weight id="1880" MUR="1.0" MUF="1.0" PDF="91259" > PDF=91200 MemberID=59 </weight>
<weight id="1881" MUR="1.0" MUF="1.0" PDF="91260" > PDF=91200 MemberID=60 </weight>
<weight id="1882" MUR="1.0" MUF="1.0" PDF="91261" > PDF=91200 MemberID=61 </weight>
<weight id="1883" MUR="1.0" MUF="1.0" PDF="91262" > PDF=91200 MemberID=62 </weight>
<weight id="1884" MUR="1.0" MUF="1.0" PDF="91263" > PDF=91200 MemberID=63 </weight>
<weight id="1885" MUR="1.0" MUF="1.0" PDF="91264" > PDF=91200 MemberID=64 </weight>
<weight id="1886" MUR="1.0" MUF="1.0" PDF="91265" > PDF=91200 MemberID=65 </weight>
<weight id="1887" MUR="1.0" MUF="1.0" PDF="91266" > PDF=91200 MemberID=66 </weight>
<weight id="1888" MUR="1.0" MUF="1.0" PDF="91267" > PDF=91200 MemberID=67 </weight>
<weight id="1889" MUR="1.0" MUF="1.0" PDF="91268" > PDF=91200 MemberID=68 </weight>
<weight id="1890" MUR="1.0" MUF="1.0" PDF="91269" > PDF=91200 MemberID=69 </weight>
<weight id="1891" MUR="1.0" MUF="1.0" PDF="91270" > PDF=91200 MemberID=70 </weight>
<weight id="1892" MUR="1.0" MUF="1.0" PDF="91271" > PDF=91200 MemberID=71 </weight>
<weight id="1893" MUR="1.0" MUF="1.0" PDF="91272" > PDF=91200 MemberID=72 </weight>
<weight id="1894" MUR="1.0" MUF="1.0" PDF="91273" > PDF=91200 MemberID=73 </weight>
<weight id="1895" MUR="1.0" MUF="1.0" PDF="91274" > PDF=91200 MemberID=74 </weight>
<weight id="1896" MUR="1.0" MUF="1.0" PDF="91275" > PDF=91200 MemberID=75 </weight>
<weight id="1897" MUR="1.0" MUF="1.0" PDF="91276" > PDF=91200 MemberID=76 </weight>
<weight id="1898" MUR="1.0" MUF="1.0" PDF="91277" > PDF=91200 MemberID=77 </weight>
<weight id="1899" MUR="1.0" MUF="1.0" PDF="91278" > PDF=91200 MemberID=78 </weight>
<weight id="1900" MUR="1.0" MUF="1.0" PDF="91279" > PDF=91200 MemberID=79 </weight>
<weight id="1901" MUR="1.0" MUF="1.0" PDF="91280" > PDF=91200 MemberID=80 </weight>
<weight id="1902" MUR="1.0" MUF="1.0" PDF="91281" > PDF=91200 MemberID=81 </weight>
<weight id="1903" MUR="1.0" MUF="1.0" PDF="91282" > PDF=91200 MemberID=82 </weight>
<weight id="1904" MUR="1.0" MUF="1.0" PDF="91283" > PDF=91200 MemberID=83 </weight>
<weight id="1905" MUR="1.0" MUF="1.0" PDF="91284" > PDF=91200 MemberID=84 </weight>
<weight id="1906" MUR="1.0" MUF="1.0" PDF="91285" > PDF=91200 MemberID=85 </weight>
<weight id="1907" MUR="1.0" MUF="1.0" PDF="91286" > PDF=91200 MemberID=86 </weight>
<weight id="1908" MUR="1.0" MUF="1.0" PDF="91287" > PDF=91200 MemberID=87 </weight>
<weight id="1909" MUR="1.0" MUF="1.0" PDF="91288" > PDF=91200 MemberID=88 </weight>
<weight id="1910" MUR="1.0" MUF="1.0" PDF="91289" > PDF=91200 MemberID=89 </weight>
<weight id="1911" MUR="1.0" MUF="1.0" PDF="91290" > PDF=91200 MemberID=90 </weight>
<weight id="1912" MUR="1.0" MUF="1.0" PDF="91291" > PDF=91200 MemberID=91 </weight>
<weight id="1913" MUR="1.0" MUF="1.0" PDF="91292" > PDF=91200 MemberID=92 </weight>
<weight id="1914" MUR="1.0" MUF="1.0" PDF="91293" > PDF=91200 MemberID=93 </weight>
<weight id="1915" MUR="1.0" MUF="1.0" PDF="91294" > PDF=91200 MemberID=94 </weight>
<weight id="1916" MUR="1.0" MUF="1.0" PDF="91295" > PDF=91200 MemberID=95 </weight>
<weight id="1917" MUR="1.0" MUF="1.0" PDF="91296" > PDF=91200 MemberID=96 </weight>
<weight id="1918" MUR="1.0" MUF="1.0" PDF="91297" > PDF=91200 MemberID=97 </weight>
<weight id="1919" MUR="1.0" MUF="1.0" PDF="91298" > PDF=91200 MemberID=98 </weight>
<weight id="1920" MUR="1.0" MUF="1.0" PDF="91299" > PDF=91200 MemberID=99 </weight>
<weight id="1921" MUR="1.0" MUF="1.0" PDF="91300" > PDF=91200 MemberID=100 </weight>
<weight id="1922" MUR="1.0" MUF="1.0" PDF="91301" > PDF=91200 MemberID=101 </weight>
<weight id="1923" MUR="1.0" MUF="1.0" PDF="91302" > PDF=91200 MemberID=102 </weight>
</weightgroup> # PDFSET -> PDFSET
<weightgroup name="PDF4LHC15_nlo_30_pdfas" combine="symmhessian+as"> # 90400: PDF4LHC15_nlo_30_pdfas. mem=0 ; alphas(MZ)=0.118 central value; mem=1-30 ; PDF symmetric eigenvectors; mem=31 ; alphas(MZ)=0.1165 central value; mem=32 ; alphas(MZ)=0.1195
<weight id="1924" MUR="1.0" MUF="1.0" PDF="90400" > PDF=90400 MemberID=0 </weight>
<weight id="1925" MUR="1.0" MUF="1.0" PDF="90401" > PDF=90400 MemberID=1 </weight>
<weight id="1926" MUR="1.0" MUF="1.0" PDF="90402" > PDF=90400 MemberID=2 </weight>
<weight id="1927" MUR="1.0" MUF="1.0" PDF="90403" > PDF=90400 MemberID=3 </weight>
<weight id="1928" MUR="1.0" MUF="1.0" PDF="90404" > PDF=90400 MemberID=4 </weight>
<weight id="1929" MUR="1.0" MUF="1.0" PDF="90405" > PDF=90400 MemberID=5 </weight>
<weight id="1930" MUR="1.0" MUF="1.0" PDF="90406" > PDF=90400 MemberID=6 </weight>
<weight id="1931" MUR="1.0" MUF="1.0" PDF="90407" > PDF=90400 MemberID=7 </weight>
<weight id="1932" MUR="1.0" MUF="1.0" PDF="90408" > PDF=90400 MemberID=8 </weight>
<weight id="1933" MUR="1.0" MUF="1.0" PDF="90409" > PDF=90400 MemberID=9 </weight>
<weight id="1934" MUR="1.0" MUF="1.0" PDF="90410" > PDF=90400 MemberID=10 </weight>
<weight id="1935" MUR="1.0" MUF="1.0" PDF="90411" > PDF=90400 MemberID=11 </weight>
<weight id="1936" MUR="1.0" MUF="1.0" PDF="90412" > PDF=90400 MemberID=12 </weight>
<weight id="1937" MUR="1.0" MUF="1.0" PDF="90413" > PDF=90400 MemberID=13 </weight>
<weight id="1938" MUR="1.0" MUF="1.0" PDF="90414" > PDF=90400 MemberID=14 </weight>
<weight id="1939" MUR="1.0" MUF="1.0" PDF="90415" > PDF=90400 MemberID=15 </weight>
<weight id="1940" MUR="1.0" MUF="1.0" PDF="90416" > PDF=90400 MemberID=16 </weight>
<weight id="1941" MUR="1.0" MUF="1.0" PDF="90417" > PDF=90400 MemberID=17 </weight>
<weight id="1942" MUR="1.0" MUF="1.0" PDF="90418" > PDF=90400 MemberID=18 </weight>
<weight id="1943" MUR="1.0" MUF="1.0" PDF="90419" > PDF=90400 MemberID=19 </weight>
<weight id="1944" MUR="1.0" MUF="1.0" PDF="90420" > PDF=90400 MemberID=20 </weight>
<weight id="1945" MUR="1.0" MUF="1.0" PDF="90421" > PDF=90400 MemberID=21 </weight>
<weight id="1946" MUR="1.0" MUF="1.0" PDF="90422" > PDF=90400 MemberID=22 </weight>
<weight id="1947" MUR="1.0" MUF="1.0" PDF="90423" > PDF=90400 MemberID=23 </weight>
<weight id="1948" MUR="1.0" MUF="1.0" PDF="90424" > PDF=90400 MemberID=24 </weight>
<weight id="1949" MUR="1.0" MUF="1.0" PDF="90425" > PDF=90400 MemberID=25 </weight>
<weight id="1950" MUR="1.0" MUF="1.0" PDF="90426" > PDF=90400 MemberID=26 </weight>
<weight id="1951" MUR="1.0" MUF="1.0" PDF="90427" > PDF=90400 MemberID=27 </weight>
<weight id="1952" MUR="1.0" MUF="1.0" PDF="90428" > PDF=90400 MemberID=28 </weight>
<weight id="1953" MUR="1.0" MUF="1.0" PDF="90429" > PDF=90400 MemberID=29 </weight>
<weight id="1954" MUR="1.0" MUF="1.0" PDF="90430" > PDF=90400 MemberID=30 </weight>
<weight id="1955" MUR="1.0" MUF="1.0" PDF="90431" > PDF=90400 MemberID=31 </weight>
<weight id="1956" MUR="1.0" MUF="1.0" PDF="90432" > PDF=90400 MemberID=32 </weight>
</weightgroup> # PDFSET -> PDFSET
<weightgroup name="PDF4LHC15_nnlo_30_pdfas" combine="symmhessian+as"> # 91400: PDF4LHC15_nnlo_30_pdfas. mem=0 ; alphas(MZ)=0.118 central value; mem=1-30 ; PDF symmetric eigenvectors; mem=31 ; alphas(MZ)=0.1165 central value; mem=32 ; alphas(MZ)=0.1195
<weight id="1957" MUR="1.0" MUF="1.0" PDF="91400" > PDF=91400 MemberID=0 </weight>
<weight id="1958" MUR="1.0" MUF="1.0" PDF="91401" > PDF=91400 MemberID=1 </weight>
<weight id="1959" MUR="1.0" MUF="1.0" PDF="91402" > PDF=91400 MemberID=2 </weight>
<weight id="1960" MUR="1.0" MUF="1.0" PDF="91403" > PDF=91400 MemberID=3 </weight>
<weight id="1961" MUR="1.0" MUF="1.0" PDF="91404" > PDF=91400 MemberID=4 </weight>
<weight id="1962" MUR="1.0" MUF="1.0" PDF="91405" > PDF=91400 MemberID=5 </weight>
<weight id="1963" MUR="1.0" MUF="1.0" PDF="91406" > PDF=91400 MemberID=6 </weight>
<weight id="1964" MUR="1.0" MUF="1.0" PDF="91407" > PDF=91400 MemberID=7 </weight>
<weight id="1965" MUR="1.0" MUF="1.0" PDF="91408" > PDF=91400 MemberID=8 </weight>
<weight id="1966" MUR="1.0" MUF="1.0" PDF="91409" > PDF=91400 MemberID=9 </weight>
<weight id="1967" MUR="1.0" MUF="1.0" PDF="91410" > PDF=91400 MemberID=10 </weight>
<weight id="1968" MUR="1.0" MUF="1.0" PDF="91411" > PDF=91400 MemberID=11 </weight>
<weight id="1969" MUR="1.0" MUF="1.0" PDF="91412" > PDF=91400 MemberID=12 </weight>
<weight id="1970" MUR="1.0" MUF="1.0" PDF="91413" > PDF=91400 MemberID=13 </weight>
<weight id="1971" MUR="1.0" MUF="1.0" PDF="91414" > PDF=91400 MemberID=14 </weight>
<weight id="1972" MUR="1.0" MUF="1.0" PDF="91415" > PDF=91400 MemberID=15 </weight>
<weight id="1973" MUR="1.0" MUF="1.0" PDF="91416" > PDF=91400 MemberID=16 </weight>
<weight id="1974" MUR="1.0" MUF="1.0" PDF="91417" > PDF=91400 MemberID=17 </weight>
<weight id="1975" MUR="1.0" MUF="1.0" PDF="91418" > PDF=91400 MemberID=18 </weight>
<weight id="1976" MUR="1.0" MUF="1.0" PDF="91419" > PDF=91400 MemberID=19 </weight>
<weight id="1977" MUR="1.0" MUF="1.0" PDF="91420" > PDF=91400 MemberID=20 </weight>
<weight id="1978" MUR="1.0" MUF="1.0" PDF="91421" > PDF=91400 MemberID=21 </weight>
<weight id="1979" MUR="1.0" MUF="1.0" PDF="91422" > PDF=91400 MemberID=22 </weight>
<weight id="1980" MUR="1.0" MUF="1.0" PDF="91423" > PDF=91400 MemberID=23 </weight>
<weight id="1981" MUR="1.0" MUF="1.0" PDF="91424" > PDF=91400 MemberID=24 </weight>
<weight id="1982" MUR="1.0" MUF="1.0" PDF="91425" > PDF=91400 MemberID=25 </weight>
<weight id="1983" MUR="1.0" MUF="1.0" PDF="91426" > PDF=91400 MemberID=26 </weight>
<weight id="1984" MUR="1.0" MUF="1.0" PDF="91427" > PDF=91400 MemberID=27 </weight>
<weight id="1985" MUR="1.0" MUF="1.0" PDF="91428" > PDF=91400 MemberID=28 </weight>
<weight id="1986" MUR="1.0" MUF="1.0" PDF="91429" > PDF=91400 MemberID=29 </weight>
<weight id="1987" MUR="1.0" MUF="1.0" PDF="91430" > PDF=91400 MemberID=30 </weight>
<weight id="1988" MUR="1.0" MUF="1.0" PDF="91431" > PDF=91400 MemberID=31 </weight>
<weight id="1989" MUR="1.0" MUF="1.0" PDF="91432" > PDF=91400 MemberID=32 </weight>
</weightgroup> # PDFSET -> PDFSET
<weightgroup name="HERAPDF20_NLO_EIG" combine="hessian"> # 61100: HERAPDF20 NLO (Q2min=3.5) fit and experimental uncertainty variations. The 28 error PDFs should be treated two by two as the up and down excursions along 14 eigenvectors, such that the symmetric error is calculated as the quadrature sum of [Sum i=1,14 of (var i+1 - var i)/2 ], or if asymmetric errors are desired according to Eqn 43 of Campbell, Huston and Stirling hep-ph/0611148. mem=0 ; central; mem=1-28 ; error eigenvectors.
<weight id="1990" MUR="1.0" MUF="1.0" PDF="61100" > PDF=61100 MemberID=0 </weight>
<weight id="1991" MUR="1.0" MUF="1.0" PDF="61101" > PDF=61100 MemberID=1 </weight>
<weight id="1992" MUR="1.0" MUF="1.0" PDF="61102" > PDF=61100 MemberID=2 </weight>
<weight id="1993" MUR="1.0" MUF="1.0" PDF="61103" > PDF=61100 MemberID=3 </weight>
<weight id="1994" MUR="1.0" MUF="1.0" PDF="61104" > PDF=61100 MemberID=4 </weight>
<weight id="1995" MUR="1.0" MUF="1.0" PDF="61105" > PDF=61100 MemberID=5 </weight>
<weight id="1996" MUR="1.0" MUF="1.0" PDF="61106" > PDF=61100 MemberID=6 </weight>
<weight id="1997" MUR="1.0" MUF="1.0" PDF="61107" > PDF=61100 MemberID=7 </weight>
<weight id="1998" MUR="1.0" MUF="1.0" PDF="61108" > PDF=61100 MemberID=8 </weight>
<weight id="1999" MUR="1.0" MUF="1.0" PDF="61109" > PDF=61100 MemberID=9 </weight>
<weight id="2000" MUR="1.0" MUF="1.0" PDF="61110" > PDF=61100 MemberID=10 </weight>
<weight id="2001" MUR="1.0" MUF="1.0" PDF="61111" > PDF=61100 MemberID=11 </weight>
<weight id="2002" MUR="1.0" MUF="1.0" PDF="61112" > PDF=61100 MemberID=12 </weight>
<weight id="2003" MUR="1.0" MUF="1.0" PDF="61113" > PDF=61100 MemberID=13 </weight>
<weight id="2004" MUR="1.0" MUF="1.0" PDF="61114" > PDF=61100 MemberID=14 </weight>
<weight id="2005" MUR="1.0" MUF="1.0" PDF="61115" > PDF=61100 MemberID=15 </weight>
<weight id="2006" MUR="1.0" MUF="1.0" PDF="61116" > PDF=61100 MemberID=16 </weight>
<weight id="2007" MUR="1.0" MUF="1.0" PDF="61117" > PDF=61100 MemberID=17 </weight>
<weight id="2008" MUR="1.0" MUF="1.0" PDF="61118" > PDF=61100 MemberID=18 </weight>
<weight id="2009" MUR="1.0" MUF="1.0" PDF="61119" > PDF=61100 MemberID=19 </weight>
<weight id="2010" MUR="1.0" MUF="1.0" PDF="61120" > PDF=61100 MemberID=20 </weight>
<weight id="2011" MUR="1.0" MUF="1.0" PDF="61121" > PDF=61100 MemberID=21 </weight>
<weight id="2012" MUR="1.0" MUF="1.0" PDF="61122" > PDF=61100 MemberID=22 </weight>
<weight id="2013" MUR="1.0" MUF="1.0" PDF="61123" > PDF=61100 MemberID=23 </weight>
<weight id="2014" MUR="1.0" MUF="1.0" PDF="61124" > PDF=61100 MemberID=24 </weight>
<weight id="2015" MUR="1.0" MUF="1.0" PDF="61125" > PDF=61100 MemberID=25 </weight>
<weight id="2016" MUR="1.0" MUF="1.0" PDF="61126" > PDF=61100 MemberID=26 </weight>
<weight id="2017" MUR="1.0" MUF="1.0" PDF="61127" > PDF=61100 MemberID=27 </weight>
<weight id="2018" MUR="1.0" MUF="1.0" PDF="61128" > PDF=61100 MemberID=28 </weight>
</weightgroup> # PDFSET -> PDFSET
<weightgroup name="HERAPDF20_NLO_VAR" combine="custom"> # 61130: HERAPDF20 NLO variations of fit parameters. Member 0 is the central fit. The 1-10 variations are considered as model errors and should be treated one by one, by taking the difference between the variation and the central value, and then adding in quadrature all positive (negative) differences to obtain the positive (negative) model error. Variations 11 to 13 are the maximal parametrisation variations; the largest positive (negative) difference between the variation and the central value is taken as the positive (negative) parametrisation error and added in quadrature to the model errors to form the parametrisation envelope. mem=0 ; central (fs=0.4,mb=4.5,mc=1.47,q20=1.9,q2min=3.5,a_s(MZ)=0.118); mem=1 ; fs=0.3;                mem=2 ; fs=0.5; mem=3 ; fs=hermesfs-03;        mem=4 ; fs=hermesfs-05 mem=5 ; q2cut=2.5;             mem=6 ; q2cut=5.; mem=7 ; mb=4.25;               mem=8 ; mb=4.75; mem=9 ; mc=1.41;               mem=10 ; mc=1.53; mem=11 ; par2(Q0 1.6, mc1.47); mem=12 ; par3 (Q0 2.2, mc1.53); mem=13 ; par4(Duv);
<weight id="2019" MUR="1.0" MUF="1.0" PDF="61130" > PDF=61130 MemberID=0 </weight>
<weight id="2020" MUR="1.0" MUF="1.0" PDF="61131" > PDF=61130 MemberID=1 </weight>
<weight id="2021" MUR="1.0" MUF="1.0" PDF="61132" > PDF=61130 MemberID=2 </weight>
<weight id="2022" MUR="1.0" MUF="1.0" PDF="61133" > PDF=61130 MemberID=3 </weight>
<weight id="2023" MUR="1.0" MUF="1.0" PDF="61134" > PDF=61130 MemberID=4 </weight>
<weight id="2024" MUR="1.0" MUF="1.0" PDF="61135" > PDF=61130 MemberID=5 </weight>
<weight id="2025" MUR="1.0" MUF="1.0" PDF="61136" > PDF=61130 MemberID=6 </weight>
<weight id="2026" MUR="1.0" MUF="1.0" PDF="61137" > PDF=61130 MemberID=7 </weight>
<weight id="2027" MUR="1.0" MUF="1.0" PDF="61138" > PDF=61130 MemberID=8 </weight>
<weight id="2028" MUR="1.0" MUF="1.0" PDF="61139" > PDF=61130 MemberID=9 </weight>
<weight id="2029" MUR="1.0" MUF="1.0" PDF="61140" > PDF=61130 MemberID=10 </weight>
<weight id="2030" MUR="1.0" MUF="1.0" PDF="61141" > PDF=61130 MemberID=11 </weight>
<weight id="2031" MUR="1.0" MUF="1.0" PDF="61142" > PDF=61130 MemberID=12 </weight>
<weight id="2032" MUR="1.0" MUF="1.0" PDF="61143" > PDF=61130 MemberID=13 </weight>
</weightgroup> # PDFSET -> PDFSET
<weightgroup name="HERAPDF20_NNLO_EIG" combine="hessian"> # 61200: HERAPDF20 NNLO (Q2min=3.5) fit and experimental uncertainty variations. The 28 error PDFs should be treated two by two as the up and down excursions along 14 eigenvectors, such that the symmetric error is calculated as the quadrature sum of [Sum i=1,14 of (var i+1 - var i)/2 ], or if asymmetric errors are desired according to Eqn 43 of Campbell, Huston and Stirling hep-ph/0611148. mem=0 ; central; mem=1-28 ; error eigenvectors.
<weight id="2033" MUR="1.0" MUF="1.0" PDF="61200" > PDF=61200 MemberID=0 </weight>
<weight id="2034" MUR="1.0" MUF="1.0" PDF="61201" > PDF=61200 MemberID=1 </weight>
<weight id="2035" MUR="1.0" MUF="1.0" PDF="61202" > PDF=61200 MemberID=2 </weight>
<weight id="2036" MUR="1.0" MUF="1.0" PDF="61203" > PDF=61200 MemberID=3 </weight>
<weight id="2037" MUR="1.0" MUF="1.0" PDF="61204" > PDF=61200 MemberID=4 </weight>
<weight id="2038" MUR="1.0" MUF="1.0" PDF="61205" > PDF=61200 MemberID=5 </weight>
<weight id="2039" MUR="1.0" MUF="1.0" PDF="61206" > PDF=61200 MemberID=6 </weight>
<weight id="2040" MUR="1.0" MUF="1.0" PDF="61207" > PDF=61200 MemberID=7 </weight>
<weight id="2041" MUR="1.0" MUF="1.0" PDF="61208" > PDF=61200 MemberID=8 </weight>
<weight id="2042" MUR="1.0" MUF="1.0" PDF="61209" > PDF=61200 MemberID=9 </weight>
<weight id="2043" MUR="1.0" MUF="1.0" PDF="61210" > PDF=61200 MemberID=10 </weight>
<weight id="2044" MUR="1.0" MUF="1.0" PDF="61211" > PDF=61200 MemberID=11 </weight>
<weight id="2045" MUR="1.0" MUF="1.0" PDF="61212" > PDF=61200 MemberID=12 </weight>
<weight id="2046" MUR="1.0" MUF="1.0" PDF="61213" > PDF=61200 MemberID=13 </weight>
<weight id="2047" MUR="1.0" MUF="1.0" PDF="61214" > PDF=61200 MemberID=14 </weight>
<weight id="2048" MUR="1.0" MUF="1.0" PDF="61215" > PDF=61200 MemberID=15 </weight>
<weight id="2049" MUR="1.0" MUF="1.0" PDF="61216" > PDF=61200 MemberID=16 </weight>
<weight id="2050" MUR="1.0" MUF="1.0" PDF="61217" > PDF=61200 MemberID=17 </weight>
<weight id="2051" MUR="1.0" MUF="1.0" PDF="61218" > PDF=61200 MemberID=18 </weight>
<weight id="2052" MUR="1.0" MUF="1.0" PDF="61219" > PDF=61200 MemberID=19 </weight>
<weight id="2053" MUR="1.0" MUF="1.0" PDF="61220" > PDF=61200 MemberID=20 </weight>
<weight id="2054" MUR="1.0" MUF="1.0" PDF="61221" > PDF=61200 MemberID=21 </weight>
<weight id="2055" MUR="1.0" MUF="1.0" PDF="61222" > PDF=61200 MemberID=22 </weight>
<weight id="2056" MUR="1.0" MUF="1.0" PDF="61223" > PDF=61200 MemberID=23 </weight>
<weight id="2057" MUR="1.0" MUF="1.0" PDF="61224" > PDF=61200 MemberID=24 </weight>
<weight id="2058" MUR="1.0" MUF="1.0" PDF="61225" > PDF=61200 MemberID=25 </weight>
<weight id="2059" MUR="1.0" MUF="1.0" PDF="61226" > PDF=61200 MemberID=26 </weight>
<weight id="2060" MUR="1.0" MUF="1.0" PDF="61227" > PDF=61200 MemberID=27 </weight>
<weight id="2061" MUR="1.0" MUF="1.0" PDF="61228" > PDF=61200 MemberID=28 </weight>
</weightgroup> # PDFSET -> PDFSET
<weightgroup name="HERAPDF20_NNLO_VAR" combine="custom"> # 61230: HERAPDF20 NNLO variations of fit parameters. Member 0 is the central fit. The 1-10 variations are considered as model errors and should be treated one by one, by taking the difference between the variation and the central value, and then adding in quadrature all positive (negative) differences to obtain the positive (negative) model error. Variations 11 to 13 are the maximal parametrisation variations; the largest positive (negative) difference between the variation and the central value is taken as the positive (negative) parametrisation error and added in quadrature to the model errors to form the parametrisation envelope. mem=0 ; central (fs=0.4,mb=4.5,mc=1.43,q20=1.9,q2min=3.5,a_s(MZ)=0.118); mem=1 ; fs=0.3;                mem=2 ; fs=0.5; mem=3 ; fs=hermesfs-03;        mem=4 ; fs=hermesfs-05 mem=5 ; q2cut=2.5;             mem=6 ; q2cut=5.; mem=7 ; mb=4.25;               mem=8 ; mb=4.75; mem=9 ; mc=1.37;               mem=10 ; mc=1.49; mem=11 ; par2(Q0 1.6, mc1.43); mem=12 ; par3 (Q0 2.2, mc1.49); mem=13 ; par4(Duv);
<weight id="2062" MUR="1.0" MUF="1.0" PDF="61230" > PDF=61230 MemberID=0 </weight>
<weight id="2063" MUR="1.0" MUF="1.0" PDF="61231" > PDF=61230 MemberID=1 </weight>
<weight id="2064" MUR="1.0" MUF="1.0" PDF="61232" > PDF=61230 MemberID=2 </weight>
<weight id="2065" MUR="1.0" MUF="1.0" PDF="61233" > PDF=61230 MemberID=3 </weight>
<weight id="2066" MUR="1.0" MUF="1.0" PDF="61234" > PDF=61230 MemberID=4 </weight>
<weight id="2067" MUR="1.0" MUF="1.0" PDF="61235" > PDF=61230 MemberID=5 </weight>
<weight id="2068" MUR="1.0" MUF="1.0" PDF="61236" > PDF=61230 MemberID=6 </weight>
<weight id="2069" MUR="1.0" MUF="1.0" PDF="61237" > PDF=61230 MemberID=7 </weight>
<weight id="2070" MUR="1.0" MUF="1.0" PDF="61238" > PDF=61230 MemberID=8 </weight>
<weight id="2071" MUR="1.0" MUF="1.0" PDF="61239" > PDF=61230 MemberID=9 </weight>
<weight id="2072" MUR="1.0" MUF="1.0" PDF="61240" > PDF=61230 MemberID=10 </weight>
<weight id="2073" MUR="1.0" MUF="1.0" PDF="61241" > PDF=61230 MemberID=11 </weight>
<weight id="2074" MUR="1.0" MUF="1.0" PDF="61242" > PDF=61230 MemberID=12 </weight>
<weight id="2075" MUR="1.0" MUF="1.0" PDF="61243" > PDF=61230 MemberID=13 </weight>
</weightgroup> # PDFSET -> PDFSET
<weightgroup name="CT14qed_inc_proton" combine="unknown"> # 13400: CT14qed_inc, NLO QCD + LO QED (inclusive photon) sets for the proton, based on CT14nlo with the initial photon PDF defined by the sum of the inelastic photon PDF and the elastic photon PDF, obtained from the equivalent photon approximation, at the initial scale Q0. The initial inelastic photon PDF is defined by the radiative ansatz and parametrized by its initial inelastic momentum fraction. (m=0 ; p=0.00%, mem=1 ; p=0.01%, mem=2 ; p=0.02%, etc., up to mem=30 ; p=0.30%). A limit of p=0.14% was found at the 90% CL in the Reference
<weight id="2076" MUR="1.0" MUF="1.0" PDF="13400" > PDF=13400 MemberID=0 </weight>
<weight id="2077" MUR="1.0" MUF="1.0" PDF="13401" > PDF=13400 MemberID=1 </weight>
<weight id="2078" MUR="1.0" MUF="1.0" PDF="13402" > PDF=13400 MemberID=2 </weight>
<weight id="2079" MUR="1.0" MUF="1.0" PDF="13403" > PDF=13400 MemberID=3 </weight>
<weight id="2080" MUR="1.0" MUF="1.0" PDF="13404" > PDF=13400 MemberID=4 </weight>
<weight id="2081" MUR="1.0" MUF="1.0" PDF="13405" > PDF=13400 MemberID=5 </weight>
<weight id="2082" MUR="1.0" MUF="1.0" PDF="13406" > PDF=13400 MemberID=6 </weight>
<weight id="2083" MUR="1.0" MUF="1.0" PDF="13407" > PDF=13400 MemberID=7 </weight>
<weight id="2084" MUR="1.0" MUF="1.0" PDF="13408" > PDF=13400 MemberID=8 </weight>
<weight id="2085" MUR="1.0" MUF="1.0" PDF="13409" > PDF=13400 MemberID=9 </weight>
<weight id="2086" MUR="1.0" MUF="1.0" PDF="13410" > PDF=13400 MemberID=10 </weight>
<weight id="2087" MUR="1.0" MUF="1.0" PDF="13411" > PDF=13400 MemberID=11 </weight>
<weight id="2088" MUR="1.0" MUF="1.0" PDF="13412" > PDF=13400 MemberID=12 </weight>
<weight id="2089" MUR="1.0" MUF="1.0" PDF="13413" > PDF=13400 MemberID=13 </weight>
<weight id="2090" MUR="1.0" MUF="1.0" PDF="13414" > PDF=13400 MemberID=14 </weight>
<weight id="2091" MUR="1.0" MUF="1.0" PDF="13415" > PDF=13400 MemberID=15 </weight>
<weight id="2092" MUR="1.0" MUF="1.0" PDF="13416" > PDF=13400 MemberID=16 </weight>
<weight id="2093" MUR="1.0" MUF="1.0" PDF="13417" > PDF=13400 MemberID=17 </weight>
<weight id="2094" MUR="1.0" MUF="1.0" PDF="13418" > PDF=13400 MemberID=18 </weight>
<weight id="2095" MUR="1.0" MUF="1.0" PDF="13419" > PDF=13400 MemberID=19 </weight>
<weight id="2096" MUR="1.0" MUF="1.0" PDF="13420" > PDF=13400 MemberID=20 </weight>
<weight id="2097" MUR="1.0" MUF="1.0" PDF="13421" > PDF=13400 MemberID=21 </weight>
<weight id="2098" MUR="1.0" MUF="1.0" PDF="13422" > PDF=13400 MemberID=22 </weight>
<weight id="2099" MUR="1.0" MUF="1.0" PDF="13423" > PDF=13400 MemberID=23 </weight>
<weight id="2100" MUR="1.0" MUF="1.0" PDF="13424" > PDF=13400 MemberID=24 </weight>
<weight id="2101" MUR="1.0" MUF="1.0" PDF="13425" > PDF=13400 MemberID=25 </weight>
<weight id="2102" MUR="1.0" MUF="1.0" PDF="13426" > PDF=13400 MemberID=26 </weight>
<weight id="2103" MUR="1.0" MUF="1.0" PDF="13427" > PDF=13400 MemberID=27 </weight>
<weight id="2104" MUR="1.0" MUF="1.0" PDF="13428" > PDF=13400 MemberID=28 </weight>
<weight id="2105" MUR="1.0" MUF="1.0" PDF="13429" > PDF=13400 MemberID=29 </weight>
<weight id="2106" MUR="1.0" MUF="1.0" PDF="13430" > PDF=13400 MemberID=30 </weight>
</weightgroup> # PDFSET -> PDFSET
<weightgroup name="LUXqed17_plus_PDF4LHC15_nnlo_100" combine="symmhessian"> # 82200: LUXqed17_plus_PDF4LHC15_nnlo_100: this set combines QCD partons from PDF4LHC15_nnlo_100 with the LUXqed photon determination.
PDF4LHC15_nnlo_100 description:
  PDF4LHC15_nnlo_100. mem=0 ; alphas(MZ)=0.118 central value; mem=1-100
  ; PDF symmetric eigenvectors
LUXqed description:
  Determination of the low Q^2 photon component from A1, CLAS and Hermes GD11-P
  fits. High-Q^2 part from the input QCD PDF with standard coefficient functions.
  Photon generated at scale 100.0 GeV, other partons matched at scale
  10.0 GeV, photon momentum absorbed by adjusting g(x) -.gt. g(x) -
  0.00699 * x^{0.000} g(x) at scale 10.0 GeV
Members:
  0 is central
  1-100 map to original PDF members
  101 replacement of CLAS resonance fit with Christy-Bosted fit
  102 rescale-R-0.5
  103 rescale R in high-Q^2 region with a higher-twist component
  104 use the A1 elastic fit result without the two-photon exchange corrections
  105 use the lower edge of the elastic fit error band
  106 lower the transition from Hermes GD11-P to the PDF-based F2,FL determinations to 5 GeV^2
  107 extremum of absolute variation obtained by adding the NNLO QCD contribution for each of three scale choices (mu_M/mu = 0.5, 1.0, 2.0)
Versioning info:
  DataVersion, below, is (10000 * PDF4LHC15_nnlo_100.DataVersion + 1 * LUXqed_version)
LUXqed version history for this PDF:
  This version corresponds to the long LUXqed17 paper.
<weight id="2107" MUR="1.0" MUF="1.0" PDF="82200" > PDF=82200 MemberID=0 </weight>
<weight id="2108" MUR="1.0" MUF="1.0" PDF="82201" > PDF=82200 MemberID=1 </weight>
<weight id="2109" MUR="1.0" MUF="1.0" PDF="82202" > PDF=82200 MemberID=2 </weight>
<weight id="2110" MUR="1.0" MUF="1.0" PDF="82203" > PDF=82200 MemberID=3 </weight>
<weight id="2111" MUR="1.0" MUF="1.0" PDF="82204" > PDF=82200 MemberID=4 </weight>
<weight id="2112" MUR="1.0" MUF="1.0" PDF="82205" > PDF=82200 MemberID=5 </weight>
<weight id="2113" MUR="1.0" MUF="1.0" PDF="82206" > PDF=82200 MemberID=6 </weight>
<weight id="2114" MUR="1.0" MUF="1.0" PDF="82207" > PDF=82200 MemberID=7 </weight>
<weight id="2115" MUR="1.0" MUF="1.0" PDF="82208" > PDF=82200 MemberID=8 </weight>
<weight id="2116" MUR="1.0" MUF="1.0" PDF="82209" > PDF=82200 MemberID=9 </weight>
<weight id="2117" MUR="1.0" MUF="1.0" PDF="82210" > PDF=82200 MemberID=10 </weight>
<weight id="2118" MUR="1.0" MUF="1.0" PDF="82211" > PDF=82200 MemberID=11 </weight>
<weight id="2119" MUR="1.0" MUF="1.0" PDF="82212" > PDF=82200 MemberID=12 </weight>
<weight id="2120" MUR="1.0" MUF="1.0" PDF="82213" > PDF=82200 MemberID=13 </weight>
<weight id="2121" MUR="1.0" MUF="1.0" PDF="82214" > PDF=82200 MemberID=14 </weight>
<weight id="2122" MUR="1.0" MUF="1.0" PDF="82215" > PDF=82200 MemberID=15 </weight>
<weight id="2123" MUR="1.0" MUF="1.0" PDF="82216" > PDF=82200 MemberID=16 </weight>
<weight id="2124" MUR="1.0" MUF="1.0" PDF="82217" > PDF=82200 MemberID=17 </weight>
<weight id="2125" MUR="1.0" MUF="1.0" PDF="82218" > PDF=82200 MemberID=18 </weight>
<weight id="2126" MUR="1.0" MUF="1.0" PDF="82219" > PDF=82200 MemberID=19 </weight>
<weight id="2127" MUR="1.0" MUF="1.0" PDF="82220" > PDF=82200 MemberID=20 </weight>
<weight id="2128" MUR="1.0" MUF="1.0" PDF="82221" > PDF=82200 MemberID=21 </weight>
<weight id="2129" MUR="1.0" MUF="1.0" PDF="82222" > PDF=82200 MemberID=22 </weight>
<weight id="2130" MUR="1.0" MUF="1.0" PDF="82223" > PDF=82200 MemberID=23 </weight>
<weight id="2131" MUR="1.0" MUF="1.0" PDF="82224" > PDF=82200 MemberID=24 </weight>
<weight id="2132" MUR="1.0" MUF="1.0" PDF="82225" > PDF=82200 MemberID=25 </weight>
<weight id="2133" MUR="1.0" MUF="1.0" PDF="82226" > PDF=82200 MemberID=26 </weight>
<weight id="2134" MUR="1.0" MUF="1.0" PDF="82227" > PDF=82200 MemberID=27 </weight>
<weight id="2135" MUR="1.0" MUF="1.0" PDF="82228" > PDF=82200 MemberID=28 </weight>
<weight id="2136" MUR="1.0" MUF="1.0" PDF="82229" > PDF=82200 MemberID=29 </weight>
<weight id="2137" MUR="1.0" MUF="1.0" PDF="82230" > PDF=82200 MemberID=30 </weight>
<weight id="2138" MUR="1.0" MUF="1.0" PDF="82231" > PDF=82200 MemberID=31 </weight>
<weight id="2139" MUR="1.0" MUF="1.0" PDF="82232" > PDF=82200 MemberID=32 </weight>
<weight id="2140" MUR="1.0" MUF="1.0" PDF="82233" > PDF=82200 MemberID=33 </weight>
<weight id="2141" MUR="1.0" MUF="1.0" PDF="82234" > PDF=82200 MemberID=34 </weight>
<weight id="2142" MUR="1.0" MUF="1.0" PDF="82235" > PDF=82200 MemberID=35 </weight>
<weight id="2143" MUR="1.0" MUF="1.0" PDF="82236" > PDF=82200 MemberID=36 </weight>
<weight id="2144" MUR="1.0" MUF="1.0" PDF="82237" > PDF=82200 MemberID=37 </weight>
<weight id="2145" MUR="1.0" MUF="1.0" PDF="82238" > PDF=82200 MemberID=38 </weight>
<weight id="2146" MUR="1.0" MUF="1.0" PDF="82239" > PDF=82200 MemberID=39 </weight>
<weight id="2147" MUR="1.0" MUF="1.0" PDF="82240" > PDF=82200 MemberID=40 </weight>
<weight id="2148" MUR="1.0" MUF="1.0" PDF="82241" > PDF=82200 MemberID=41 </weight>
<weight id="2149" MUR="1.0" MUF="1.0" PDF="82242" > PDF=82200 MemberID=42 </weight>
<weight id="2150" MUR="1.0" MUF="1.0" PDF="82243" > PDF=82200 MemberID=43 </weight>
<weight id="2151" MUR="1.0" MUF="1.0" PDF="82244" > PDF=82200 MemberID=44 </weight>
<weight id="2152" MUR="1.0" MUF="1.0" PDF="82245" > PDF=82200 MemberID=45 </weight>
<weight id="2153" MUR="1.0" MUF="1.0" PDF="82246" > PDF=82200 MemberID=46 </weight>
<weight id="2154" MUR="1.0" MUF="1.0" PDF="82247" > PDF=82200 MemberID=47 </weight>
<weight id="2155" MUR="1.0" MUF="1.0" PDF="82248" > PDF=82200 MemberID=48 </weight>
<weight id="2156" MUR="1.0" MUF="1.0" PDF="82249" > PDF=82200 MemberID=49 </weight>
<weight id="2157" MUR="1.0" MUF="1.0" PDF="82250" > PDF=82200 MemberID=50 </weight>
<weight id="2158" MUR="1.0" MUF="1.0" PDF="82251" > PDF=82200 MemberID=51 </weight>
<weight id="2159" MUR="1.0" MUF="1.0" PDF="82252" > PDF=82200 MemberID=52 </weight>
<weight id="2160" MUR="1.0" MUF="1.0" PDF="82253" > PDF=82200 MemberID=53 </weight>
<weight id="2161" MUR="1.0" MUF="1.0" PDF="82254" > PDF=82200 MemberID=54 </weight>
<weight id="2162" MUR="1.0" MUF="1.0" PDF="82255" > PDF=82200 MemberID=55 </weight>
<weight id="2163" MUR="1.0" MUF="1.0" PDF="82256" > PDF=82200 MemberID=56 </weight>
<weight id="2164" MUR="1.0" MUF="1.0" PDF="82257" > PDF=82200 MemberID=57 </weight>
<weight id="2165" MUR="1.0" MUF="1.0" PDF="82258" > PDF=82200 MemberID=58 </weight>
<weight id="2166" MUR="1.0" MUF="1.0" PDF="82259" > PDF=82200 MemberID=59 </weight>
<weight id="2167" MUR="1.0" MUF="1.0" PDF="82260" > PDF=82200 MemberID=60 </weight>
<weight id="2168" MUR="1.0" MUF="1.0" PDF="82261" > PDF=82200 MemberID=61 </weight>
<weight id="2169" MUR="1.0" MUF="1.0" PDF="82262" > PDF=82200 MemberID=62 </weight>
<weight id="2170" MUR="1.0" MUF="1.0" PDF="82263" > PDF=82200 MemberID=63 </weight>
<weight id="2171" MUR="1.0" MUF="1.0" PDF="82264" > PDF=82200 MemberID=64 </weight>
<weight id="2172" MUR="1.0" MUF="1.0" PDF="82265" > PDF=82200 MemberID=65 </weight>
<weight id="2173" MUR="1.0" MUF="1.0" PDF="82266" > PDF=82200 MemberID=66 </weight>
<weight id="2174" MUR="1.0" MUF="1.0" PDF="82267" > PDF=82200 MemberID=67 </weight>
<weight id="2175" MUR="1.0" MUF="1.0" PDF="82268" > PDF=82200 MemberID=68 </weight>
<weight id="2176" MUR="1.0" MUF="1.0" PDF="82269" > PDF=82200 MemberID=69 </weight>
<weight id="2177" MUR="1.0" MUF="1.0" PDF="82270" > PDF=82200 MemberID=70 </weight>
<weight id="2178" MUR="1.0" MUF="1.0" PDF="82271" > PDF=82200 MemberID=71 </weight>
<weight id="2179" MUR="1.0" MUF="1.0" PDF="82272" > PDF=82200 MemberID=72 </weight>
<weight id="2180" MUR="1.0" MUF="1.0" PDF="82273" > PDF=82200 MemberID=73 </weight>
<weight id="2181" MUR="1.0" MUF="1.0" PDF="82274" > PDF=82200 MemberID=74 </weight>
<weight id="2182" MUR="1.0" MUF="1.0" PDF="82275" > PDF=82200 MemberID=75 </weight>
<weight id="2183" MUR="1.0" MUF="1.0" PDF="82276" > PDF=82200 MemberID=76 </weight>
<weight id="2184" MUR="1.0" MUF="1.0" PDF="82277" > PDF=82200 MemberID=77 </weight>
<weight id="2185" MUR="1.0" MUF="1.0" PDF="82278" > PDF=82200 MemberID=78 </weight>
<weight id="2186" MUR="1.0" MUF="1.0" PDF="82279" > PDF=82200 MemberID=79 </weight>
<weight id="2187" MUR="1.0" MUF="1.0" PDF="82280" > PDF=82200 MemberID=80 </weight>
<weight id="2188" MUR="1.0" MUF="1.0" PDF="82281" > PDF=82200 MemberID=81 </weight>
<weight id="2189" MUR="1.0" MUF="1.0" PDF="82282" > PDF=82200 MemberID=82 </weight>
<weight id="2190" MUR="1.0" MUF="1.0" PDF="82283" > PDF=82200 MemberID=83 </weight>
<weight id="2191" MUR="1.0" MUF="1.0" PDF="82284" > PDF=82200 MemberID=84 </weight>
<weight id="2192" MUR="1.0" MUF="1.0" PDF="82285" > PDF=82200 MemberID=85 </weight>
<weight id="2193" MUR="1.0" MUF="1.0" PDF="82286" > PDF=82200 MemberID=86 </weight>
<weight id="2194" MUR="1.0" MUF="1.0" PDF="82287" > PDF=82200 MemberID=87 </weight>
<weight id="2195" MUR="1.0" MUF="1.0" PDF="82288" > PDF=82200 MemberID=88 </weight>
<weight id="2196" MUR="1.0" MUF="1.0" PDF="82289" > PDF=82200 MemberID=89 </weight>
<weight id="2197" MUR="1.0" MUF="1.0" PDF="82290" > PDF=82200 MemberID=90 </weight>
<weight id="2198" MUR="1.0" MUF="1.0" PDF="82291" > PDF=82200 MemberID=91 </weight>
<weight id="2199" MUR="1.0" MUF="1.0" PDF="82292" > PDF=82200 MemberID=92 </weight>
<weight id="2200" MUR="1.0" MUF="1.0" PDF="82293" > PDF=82200 MemberID=93 </weight>
<weight id="2201" MUR="1.0" MUF="1.0" PDF="82294" > PDF=82200 MemberID=94 </weight>
<weight id="2202" MUR="1.0" MUF="1.0" PDF="82295" > PDF=82200 MemberID=95 </weight>
<weight id="2203" MUR="1.0" MUF="1.0" PDF="82296" > PDF=82200 MemberID=96 </weight>
<weight id="2204" MUR="1.0" MUF="1.0" PDF="82297" > PDF=82200 MemberID=97 </weight>
<weight id="2205" MUR="1.0" MUF="1.0" PDF="82298" > PDF=82200 MemberID=98 </weight>
<weight id="2206" MUR="1.0" MUF="1.0" PDF="82299" > PDF=82200 MemberID=99 </weight>
<weight id="2207" MUR="1.0" MUF="1.0" PDF="82300" > PDF=82200 MemberID=100 </weight>
<weight id="2208" MUR="1.0" MUF="1.0" PDF="82301" > PDF=82200 MemberID=101 </weight>
<weight id="2209" MUR="1.0" MUF="1.0" PDF="82302" > PDF=82200 MemberID=102 </weight>
<weight id="2210" MUR="1.0" MUF="1.0" PDF="82303" > PDF=82200 MemberID=103 </weight>
<weight id="2211" MUR="1.0" MUF="1.0" PDF="82304" > PDF=82200 MemberID=104 </weight>
<weight id="2212" MUR="1.0" MUF="1.0" PDF="82305" > PDF=82200 MemberID=105 </weight>
<weight id="2213" MUR="1.0" MUF="1.0" PDF="82306" > PDF=82200 MemberID=106 </weight>
<weight id="2214" MUR="1.0" MUF="1.0" PDF="82307" > PDF=82200 MemberID=107 </weight>
</weightgroup> # PDFSET -> PDFSET
<weightgroup name="NNPDF30_nlo_nf_5_pdfas" combine="replicas+as"> # 292200: NNPDF3.0 NLO global fit; mem=0 to mem=100 with alphas(MZ)=0.118, mem=0 ; average on replicas 1-100; mem=1-100 ; PDF replicas with  alphas(MZ)=0.118; mem=101 ; central value for alphas=0.117; mem=102 ; central value for alphas=0.119 
<weight id="2215" MUR="1.0" MUF="1.0" PDF="292200" > PDF=292200 MemberID=0 </weight>
<weight id="2216" MUR="1.0" MUF="1.0" PDF="292201" > PDF=292200 MemberID=1 </weight>
<weight id="2217" MUR="1.0" MUF="1.0" PDF="292202" > PDF=292200 MemberID=2 </weight>
<weight id="2218" MUR="1.0" MUF="1.0" PDF="292203" > PDF=292200 MemberID=3 </weight>
<weight id="2219" MUR="1.0" MUF="1.0" PDF="292204" > PDF=292200 MemberID=4 </weight>
<weight id="2220" MUR="1.0" MUF="1.0" PDF="292205" > PDF=292200 MemberID=5 </weight>
<weight id="2221" MUR="1.0" MUF="1.0" PDF="292206" > PDF=292200 MemberID=6 </weight>
<weight id="2222" MUR="1.0" MUF="1.0" PDF="292207" > PDF=292200 MemberID=7 </weight>
<weight id="2223" MUR="1.0" MUF="1.0" PDF="292208" > PDF=292200 MemberID=8 </weight>
<weight id="2224" MUR="1.0" MUF="1.0" PDF="292209" > PDF=292200 MemberID=9 </weight>
<weight id="2225" MUR="1.0" MUF="1.0" PDF="292210" > PDF=292200 MemberID=10 </weight>
<weight id="2226" MUR="1.0" MUF="1.0" PDF="292211" > PDF=292200 MemberID=11 </weight>
<weight id="2227" MUR="1.0" MUF="1.0" PDF="292212" > PDF=292200 MemberID=12 </weight>
<weight id="2228" MUR="1.0" MUF="1.0" PDF="292213" > PDF=292200 MemberID=13 </weight>
<weight id="2229" MUR="1.0" MUF="1.0" PDF="292214" > PDF=292200 MemberID=14 </weight>
<weight id="2230" MUR="1.0" MUF="1.0" PDF="292215" > PDF=292200 MemberID=15 </weight>
<weight id="2231" MUR="1.0" MUF="1.0" PDF="292216" > PDF=292200 MemberID=16 </weight>
<weight id="2232" MUR="1.0" MUF="1.0" PDF="292217" > PDF=292200 MemberID=17 </weight>
<weight id="2233" MUR="1.0" MUF="1.0" PDF="292218" > PDF=292200 MemberID=18 </weight>
<weight id="2234" MUR="1.0" MUF="1.0" PDF="292219" > PDF=292200 MemberID=19 </weight>
<weight id="2235" MUR="1.0" MUF="1.0" PDF="292220" > PDF=292200 MemberID=20 </weight>
<weight id="2236" MUR="1.0" MUF="1.0" PDF="292221" > PDF=292200 MemberID=21 </weight>
<weight id="2237" MUR="1.0" MUF="1.0" PDF="292222" > PDF=292200 MemberID=22 </weight>
<weight id="2238" MUR="1.0" MUF="1.0" PDF="292223" > PDF=292200 MemberID=23 </weight>
<weight id="2239" MUR="1.0" MUF="1.0" PDF="292224" > PDF=292200 MemberID=24 </weight>
<weight id="2240" MUR="1.0" MUF="1.0" PDF="292225" > PDF=292200 MemberID=25 </weight>
<weight id="2241" MUR="1.0" MUF="1.0" PDF="292226" > PDF=292200 MemberID=26 </weight>
<weight id="2242" MUR="1.0" MUF="1.0" PDF="292227" > PDF=292200 MemberID=27 </weight>
<weight id="2243" MUR="1.0" MUF="1.0" PDF="292228" > PDF=292200 MemberID=28 </weight>
<weight id="2244" MUR="1.0" MUF="1.0" PDF="292229" > PDF=292200 MemberID=29 </weight>
<weight id="2245" MUR="1.0" MUF="1.0" PDF="292230" > PDF=292200 MemberID=30 </weight>
<weight id="2246" MUR="1.0" MUF="1.0" PDF="292231" > PDF=292200 MemberID=31 </weight>
<weight id="2247" MUR="1.0" MUF="1.0" PDF="292232" > PDF=292200 MemberID=32 </weight>
<weight id="2248" MUR="1.0" MUF="1.0" PDF="292233" > PDF=292200 MemberID=33 </weight>
<weight id="2249" MUR="1.0" MUF="1.0" PDF="292234" > PDF=292200 MemberID=34 </weight>
<weight id="2250" MUR="1.0" MUF="1.0" PDF="292235" > PDF=292200 MemberID=35 </weight>
<weight id="2251" MUR="1.0" MUF="1.0" PDF="292236" > PDF=292200 MemberID=36 </weight>
<weight id="2252" MUR="1.0" MUF="1.0" PDF="292237" > PDF=292200 MemberID=37 </weight>
<weight id="2253" MUR="1.0" MUF="1.0" PDF="292238" > PDF=292200 MemberID=38 </weight>
<weight id="2254" MUR="1.0" MUF="1.0" PDF="292239" > PDF=292200 MemberID=39 </weight>
<weight id="2255" MUR="1.0" MUF="1.0" PDF="292240" > PDF=292200 MemberID=40 </weight>
<weight id="2256" MUR="1.0" MUF="1.0" PDF="292241" > PDF=292200 MemberID=41 </weight>
<weight id="2257" MUR="1.0" MUF="1.0" PDF="292242" > PDF=292200 MemberID=42 </weight>
<weight id="2258" MUR="1.0" MUF="1.0" PDF="292243" > PDF=292200 MemberID=43 </weight>
<weight id="2259" MUR="1.0" MUF="1.0" PDF="292244" > PDF=292200 MemberID=44 </weight>
<weight id="2260" MUR="1.0" MUF="1.0" PDF="292245" > PDF=292200 MemberID=45 </weight>
<weight id="2261" MUR="1.0" MUF="1.0" PDF="292246" > PDF=292200 MemberID=46 </weight>
<weight id="2262" MUR="1.0" MUF="1.0" PDF="292247" > PDF=292200 MemberID=47 </weight>
<weight id="2263" MUR="1.0" MUF="1.0" PDF="292248" > PDF=292200 MemberID=48 </weight>
<weight id="2264" MUR="1.0" MUF="1.0" PDF="292249" > PDF=292200 MemberID=49 </weight>
<weight id="2265" MUR="1.0" MUF="1.0" PDF="292250" > PDF=292200 MemberID=50 </weight>
<weight id="2266" MUR="1.0" MUF="1.0" PDF="292251" > PDF=292200 MemberID=51 </weight>
<weight id="2267" MUR="1.0" MUF="1.0" PDF="292252" > PDF=292200 MemberID=52 </weight>
<weight id="2268" MUR="1.0" MUF="1.0" PDF="292253" > PDF=292200 MemberID=53 </weight>
<weight id="2269" MUR="1.0" MUF="1.0" PDF="292254" > PDF=292200 MemberID=54 </weight>
<weight id="2270" MUR="1.0" MUF="1.0" PDF="292255" > PDF=292200 MemberID=55 </weight>
<weight id="2271" MUR="1.0" MUF="1.0" PDF="292256" > PDF=292200 MemberID=56 </weight>
<weight id="2272" MUR="1.0" MUF="1.0" PDF="292257" > PDF=292200 MemberID=57 </weight>
<weight id="2273" MUR="1.0" MUF="1.0" PDF="292258" > PDF=292200 MemberID=58 </weight>
<weight id="2274" MUR="1.0" MUF="1.0" PDF="292259" > PDF=292200 MemberID=59 </weight>
<weight id="2275" MUR="1.0" MUF="1.0" PDF="292260" > PDF=292200 MemberID=60 </weight>
<weight id="2276" MUR="1.0" MUF="1.0" PDF="292261" > PDF=292200 MemberID=61 </weight>
<weight id="2277" MUR="1.0" MUF="1.0" PDF="292262" > PDF=292200 MemberID=62 </weight>
<weight id="2278" MUR="1.0" MUF="1.0" PDF="292263" > PDF=292200 MemberID=63 </weight>
<weight id="2279" MUR="1.0" MUF="1.0" PDF="292264" > PDF=292200 MemberID=64 </weight>
<weight id="2280" MUR="1.0" MUF="1.0" PDF="292265" > PDF=292200 MemberID=65 </weight>
<weight id="2281" MUR="1.0" MUF="1.0" PDF="292266" > PDF=292200 MemberID=66 </weight>
<weight id="2282" MUR="1.0" MUF="1.0" PDF="292267" > PDF=292200 MemberID=67 </weight>
<weight id="2283" MUR="1.0" MUF="1.0" PDF="292268" > PDF=292200 MemberID=68 </weight>
<weight id="2284" MUR="1.0" MUF="1.0" PDF="292269" > PDF=292200 MemberID=69 </weight>
<weight id="2285" MUR="1.0" MUF="1.0" PDF="292270" > PDF=292200 MemberID=70 </weight>
<weight id="2286" MUR="1.0" MUF="1.0" PDF="292271" > PDF=292200 MemberID=71 </weight>
<weight id="2287" MUR="1.0" MUF="1.0" PDF="292272" > PDF=292200 MemberID=72 </weight>
<weight id="2288" MUR="1.0" MUF="1.0" PDF="292273" > PDF=292200 MemberID=73 </weight>
<weight id="2289" MUR="1.0" MUF="1.0" PDF="292274" > PDF=292200 MemberID=74 </weight>
<weight id="2290" MUR="1.0" MUF="1.0" PDF="292275" > PDF=292200 MemberID=75 </weight>
<weight id="2291" MUR="1.0" MUF="1.0" PDF="292276" > PDF=292200 MemberID=76 </weight>
<weight id="2292" MUR="1.0" MUF="1.0" PDF="292277" > PDF=292200 MemberID=77 </weight>
<weight id="2293" MUR="1.0" MUF="1.0" PDF="292278" > PDF=292200 MemberID=78 </weight>
<weight id="2294" MUR="1.0" MUF="1.0" PDF="292279" > PDF=292200 MemberID=79 </weight>
<weight id="2295" MUR="1.0" MUF="1.0" PDF="292280" > PDF=292200 MemberID=80 </weight>
<weight id="2296" MUR="1.0" MUF="1.0" PDF="292281" > PDF=292200 MemberID=81 </weight>
<weight id="2297" MUR="1.0" MUF="1.0" PDF="292282" > PDF=292200 MemberID=82 </weight>
<weight id="2298" MUR="1.0" MUF="1.0" PDF="292283" > PDF=292200 MemberID=83 </weight>
<weight id="2299" MUR="1.0" MUF="1.0" PDF="292284" > PDF=292200 MemberID=84 </weight>
<weight id="2300" MUR="1.0" MUF="1.0" PDF="292285" > PDF=292200 MemberID=85 </weight>
<weight id="2301" MUR="1.0" MUF="1.0" PDF="292286" > PDF=292200 MemberID=86 </weight>
<weight id="2302" MUR="1.0" MUF="1.0" PDF="292287" > PDF=292200 MemberID=87 </weight>
<weight id="2303" MUR="1.0" MUF="1.0" PDF="292288" > PDF=292200 MemberID=88 </weight>
<weight id="2304" MUR="1.0" MUF="1.0" PDF="292289" > PDF=292200 MemberID=89 </weight>
<weight id="2305" MUR="1.0" MUF="1.0" PDF="292290" > PDF=292200 MemberID=90 </weight>
<weight id="2306" MUR="1.0" MUF="1.0" PDF="292291" > PDF=292200 MemberID=91 </weight>
<weight id="2307" MUR="1.0" MUF="1.0" PDF="292292" > PDF=292200 MemberID=92 </weight>
<weight id="2308" MUR="1.0" MUF="1.0" PDF="292293" > PDF=292200 MemberID=93 </weight>
<weight id="2309" MUR="1.0" MUF="1.0" PDF="292294" > PDF=292200 MemberID=94 </weight>
<weight id="2310" MUR="1.0" MUF="1.0" PDF="292295" > PDF=292200 MemberID=95 </weight>
<weight id="2311" MUR="1.0" MUF="1.0" PDF="292296" > PDF=292200 MemberID=96 </weight>
<weight id="2312" MUR="1.0" MUF="1.0" PDF="292297" > PDF=292200 MemberID=97 </weight>
<weight id="2313" MUR="1.0" MUF="1.0" PDF="292298" > PDF=292200 MemberID=98 </weight>
<weight id="2314" MUR="1.0" MUF="1.0" PDF="292299" > PDF=292200 MemberID=99 </weight>
<weight id="2315" MUR="1.0" MUF="1.0" PDF="292300" > PDF=292200 MemberID=100 </weight>
<weight id="2316" MUR="1.0" MUF="1.0" PDF="292301" > PDF=292200 MemberID=101 </weight>
<weight id="2317" MUR="1.0" MUF="1.0" PDF="292302" > PDF=292200 MemberID=102 </weight>
</weightgroup> # PDFSET -> PDF
<weight id="2318" MUR="1.0" MUF="1.0" PDF="292600" > PDF=292600 MemberID=0 </weight>
<weight id="2319" MUR="1.0" MUF="1.0" PDF="315000" > PDF=315000 MemberID=0 </weight>
<weight id="2320" MUR="1.0" MUF="1.0" PDF="315200" > PDF=315200 MemberID=0 </weight>
<weight id="2321" MUR="1.0" MUF="1.0" PDF="262000" > PDF=262000 MemberID=0 </weight>
<weight id="2322" MUR="1.0" MUF="1.0" PDF="263000" > PDF=263000 MemberID=0 </weight>
</initrwgt>
<MGGenerationInfo>
#  Number of Events        :       10
#  Integrated weight (pb)  :       611.392055782
</MGGenerationInfo>
</header>
<init>
2212 2212 6.500000e+03 6.500000e+03 0 0 325300 325300 -3 3
2.307839e+02 5.475755e+00 6.113921e+01 1
7.043150e+01 4.607602e+00 6.113921e+01 3
3.101766e+02 1.025808e+01 6.113921e+01 2
<generator name='MadGraph5_aMC@NLO' version='2.6.5'>please cite 1405.0301 </generator>
</init>
<event>
12      1 +6.1139206e+01 2.00025100e+02 7.56146200e-03 1.05519500e-01
       21 -1    0    0  504  503 +0.0000000000e+00 +0.0000000000e+00 +3.3807587779e+01 3.3807587779e+01 0.0000000000e+00 0.0000e+00 -1.0000e+00
       21 -1    0    0  502  504 -0.0000000000e+00 -0.0000000000e+00 -1.9793342340e+03 1.9793342340e+03 0.0000000000e+00 0.0000e+00 -1.0000e+00
        6  2    1    2  502    0 -6.6490464965e+01 +7.4957268199e+01 -1.6126863493e+03 1.6250437859e+03 1.7311981741e+02 0.0000e+00 0.0000e+00
       24  2    3    3    0    0 -6.5878520799e+01 +9.7773285972e+01 -1.5696608420e+03 1.5761601300e+03 8.0907364213e+01 0.0000e+00 0.0000e+00
       -6  2    1    2    0  503 +6.6490464965e+01 -7.4957268199e+01 -3.3284029692e+02 3.8809803579e+02 1.7262053221e+02 0.0000e+00 0.0000e+00
      -24  2    5    5    0    0 +3.6887037076e+01 -3.6380486880e+01 -6.5233477175e+01 1.1607705613e+02 8.0834912543e+01 0.0000e+00 0.0000e+00
        2  1    4    4  501    0 -7.7137862919e+01 +5.7376333643e+01 -1.2616513888e+03 1.2653088636e+03 0.0000000000e+00 0.0000e+00 -1.0000e+00
       -1  1    4    4    0  501 +1.1259342120e+01 +4.0396952329e+01 -3.0800945325e+02 3.1085126642e+02 0.0000000000e+00 0.0000e+00 1.0000e+00
        5  1    3    3  502    0 -6.1194416563e-01 -2.2816017773e+01 -4.3025507252e+01 4.8883655929e+01 4.1800000000e+00 0.0000e+00 -1.0000e+00
       13  1    6    6    0    0 +6.2127446096e+01 -2.5740590968e+01 -5.4860080787e+01 8.6787245870e+01 0.0000000000e+00 0.0000e+00 -1.0000e+00
      -14  1    6    6    0    0 -2.5240409020e+01 -1.0639895912e+01 -1.0373396389e+01 2.9289810262e+01 0.0000000000e+00 0.0000e+00 1.0000e+00
       -5  1    5    5    0  503 +2.9603427889e+01 -3.8576781319e+01 -2.6760681975e+02 2.7202097966e+02 4.1800000000e+00 0.0000e+00 1.0000e+00
<scales pt_clust_7="13000.00000" pt_clust_8="13000.00000" pt_clust_9="13000.00000" pt_clust_10="13000.00000" pt_clust_11="13000.00000" pt_clust_12="13000.00000"></scales>
<mgrwt>
<rscale>  2 0.19991703E+03</rscale>
<asrwt>0</asrwt>
<pdfrwt beam="1">  1       21 0.52011661E-02 0.19959314E+03</pdfrwt>
<pdfrwt beam="2">  1       21 0.30451303E+00 0.19959314E+03</pdfrwt>
<totfact> 0.61858704E+01</totfact>
</mgrwt>
<clustering>
<clus scale="   80.835"> 10 11 -1 -1</clus>
<clus scale="   80.907">  7  8 -1 -1</clus>
<clus scale="  172.621"> 10 12 -1 -1</clus>
<clus scale="  173.120">  7  9 -1 -1</clus>
<clus scale="  199.593">  1 10  2 -1</clus>
<clus scale="  199.593">  1  7  2 -1</clus>
</clustering>
<rwgt>
<wgt id='dummy'> +6.1139206e+01 </wgt>
<wgt id='ctGRe_0p_cQj18_0p_cQj38_0p_cQj11_0p_cjj31_0p_ctu8_0p_ctd8_0p_ctj8_0p_cQu8_0p_cQd8_0p_ctu1_0p_ctd1_0p_ctj1_0p_cQu1_0p_cQd1_0p'> +6.1139206e+01 </wgt>
<wgt id='ctGRe_1p_cQj18_0p_cQj38_0p_cQj11_0p_cjj31_0p_ctu8_0p_ctd8_0p_ctj8_0p_cQu8_0p_cQd8_0p_ctu1_0p_ctd1_0p_ctj1_0p_cQu1_0p_cQd1_0p'> +4.3866085e+01 </wgt>
<wgt id='ctGRe_0p_cQj18_1p_cQj38_0p_cQj11_0p_cjj31_0p_ctu8_0p_ctd8_0p_ctj8_0p_cQu8_0p_cQd8_0p_ctu1_0p_ctd1_0p_ctj1_0p_cQu1_0p_cQd1_0p'> +6.1139206e+01 </wgt>
<wgt id='ctGRe_0p_cQj18_0p_cQj38_1p_cQj11_0p_cjj31_0p_ctu8_0p_ctd8_0p_ctj8_0p_cQu8_0p_cQd8_0p_ctu1_0p_ctd1_0p_ctj1_0p_cQu1_0p_cQd1_0p'> +6.1139206e+01 </wgt>
<wgt id='ctGRe_0p_cQj18_0p_cQj38_0p_cQj11_1p_cjj31_0p_ctu8_0p_ctd8_0p_ctj8_0p_cQu8_0p_cQd8_0p_ctu1_0p_ctd1_0p_ctj1_0p_cQu1_0p_cQd1_0p'> +6.1139206e+01 </wgt>
<wgt id='ctGRe_0p_cQj18_0p_cQj38_0p_cQj11_0p_cjj31_1p_ctu8_0p_ctd8_0p_ctj8_0p_cQu8_0p_cQd8_0p_ctu1_0p_ctd1_0p_ctj1_0p_cQu1_0p_cQd1_0p'> +6.1139206e+01 </wgt>
<wgt id='ctGRe_0p_cQj18_0p_cQj38_0p_cQj11_0p_cjj31_0p_ctu8_1p_ctd8_0p_ctj8_0p_cQu8_0p_cQd8_0p_ctu1_0p_ctd1_0p_ctj1_0p_cQu1_0p_cQd1_0p'> +6.1139206e+01 </wgt>
<wgt id='ctGRe_0p_cQj18_0p_cQj38_0p_cQj11_0p_cjj31_0p_ctu8_0p_ctd8_1p_ctj8_0p_cQu8_0p_cQd8_0p_ctu1_0p_ctd1_0p_ctj1_0p_cQu1_0p_cQd1_0p'> +6.1139206e+01 </wgt>
<wgt id='ctGRe_0p_cQj18_0p_cQj38_0p_cQj11_0p_cjj31_0p_ctu8_0p_ctd8_0p_ctj8_1p_cQu8_0p_cQd8_0p_ctu1_0p_ctd1_0p_ctj1_0p_cQu1_0p_cQd1_0p'> +6.1139206e+01 </wgt>
<wgt id='ctGRe_0p_cQj18_0p_cQj38_0p_cQj11_0p_cjj31_0p_ctu8_0p_ctd8_0p_ctj8_0p_cQu8_1p_cQd8_0p_ctu1_0p_ctd1_0p_ctj1_0p_cQu1_0p_cQd1_0p'> +6.1139206e+01 </wgt>
<wgt id='ctGRe_0p_cQj18_0p_cQj38_0p_cQj11_0p_cjj31_0p_ctu8_0p_ctd8_0p_ctj8_0p_cQu8_0p_cQd8_1p_ctu1_0p_ctd1_0p_ctj1_0p_cQu1_0p_cQd1_0p'> +6.1139206e+01 </wgt>
<wgt id='ctGRe_0p_cQj18_0p_cQj38_0p_cQj11_0p_cjj31_0p_ctu8_0p_ctd8_0p_ctj8_0p_cQu8_0p_cQd8_0p_ctu1_1p_ctd1_0p_ctj1_0p_cQu1_0p_cQd1_0p'> +6.1139206e+01 </wgt>
<wgt id='ctGRe_0p_cQj18_0p_cQj38_0p_cQj11_0p_cjj31_0p_ctu8_0p_ctd8_0p_ctj8_0p_cQu8_0p_cQd8_0p_ctu1_0p_ctd1_1p_ctj1_0p_cQu1_0p_cQd1_0p'> +6.1139206e+01 </wgt>
<wgt id='ctGRe_0p_cQj18_0p_cQj38_0p_cQj11_0p_cjj31_0p_ctu8_0p_ctd8_0p_ctj8_0p_cQu8_0p_cQd8_0p_ctu1_0p_ctd1_0p_ctj1_1p_cQu1_0p_cQd1_0p'> +6.1139206e+01 </wgt>
<wgt id='ctGRe_0p_cQj18_0p_cQj38_0p_cQj11_0p_cjj31_0p_ctu8_0p_ctd8_0p_ctj8_0p_cQu8_0p_cQd8_0p_ctu1_0p_ctd1_0p_ctj1_0p_cQu1_1p_cQd1_0p'> +6.1139206e+01 </wgt>
<wgt id='ctGRe_0p_cQj18_0p_cQj38_0p_cQj11_0p_cjj31_0p_ctu8_0p_ctd8_0p_ctj8_0p_cQu8_0p_cQd8_0p_ctu1_0p_ctd1_0p_ctj1_0p_cQu1_0p_cQd1_1p'> +6.1139206e+01 </wgt>
<wgt id='ctGRe_2p_cQj18_0p_cQj38_0p_cQj11_0p_cjj31_0p_ctu8_0p_ctd8_0p_ctj8_0p_cQu8_0p_cQd8_0p_ctu1_0p_ctd1_0p_ctj1_0p_cQu1_0p_cQd1_0p'> +2.9613352e+01 </wgt>
<wgt id='ctGRe_1p_cQj18_1p_cQj38_0p_cQj11_0p_cjj31_0p_ctu8_0p_ctd8_0p_ctj8_0p_cQu8_0p_cQd8_0p_ctu1_0p_ctd1_0p_ctj1_0p_cQu1_0p_cQd1_0p'> +4.3866085e+01 </wgt>
<wgt id='ctGRe_1p_cQj18_0p_cQj38_1p_cQj11_0p_cjj31_0p_ctu8_0p_ctd8_0p_ctj8_0p_cQu8_0p_cQd8_0p_ctu1_0p_ctd1_0p_ctj1_0p_cQu1_0p_cQd1_0p'> +4.3866085e+01 </wgt>
<wgt id='ctGRe_1p_cQj18_0p_cQj38_0p_cQj11_1p_cjj31_0p_ctu8_0p_ctd8_0p_ctj8_0p_cQu8_0p_cQd8_0p_ctu1_0p_ctd1_0p_ctj1_0p_cQu1_0p_cQd1_0p'> +4.3866085e+01 </wgt>
<wgt id='ctGRe_1p_cQj18_0p_cQj38_0p_cQj11_0p_cjj31_1p_ctu8_0p_ctd8_0p_ctj8_0p_cQu8_0p_cQd8_0p_ctu1_0p_ctd1_0p_ctj1_0p_cQu1_0p_cQd1_0p'> +4.3866085e+01 </wgt>
<wgt id='ctGRe_1p_cQj18_0p_cQj38_0p_cQj11_0p_cjj31_0p_ctu8_1p_ctd8_0p_ctj8_0p_cQu8_0p_cQd8_0p_ctu1_0p_ctd1_0p_ctj1_0p_cQu1_0p_cQd1_0p'> +4.3866085e+01 </wgt>
<wgt id='ctGRe_1p_cQj18_0p_cQj38_0p_cQj11_0p_cjj31_0p_ctu8_0p_ctd8_1p_ctj8_0p_cQu8_0p_cQd8_0p_ctu1_0p_ctd1_0p_ctj1_0p_cQu1_0p_cQd1_0p'> +4.3866085e+01 </wgt>
<wgt id='ctGRe_1p_cQj18_0p_cQj38_0p_cQj11_0p_cjj31_0p_ctu8_0p_ctd8_0p_ctj8_1p_cQu8_0p_cQd8_0p_ctu1_0p_ctd1_0p_ctj1_0p_cQu1_0p_cQd1_0p'> +4.3866085e+01 </wgt>
<wgt id='ctGRe_1p_cQj18_0p_cQj38_0p_cQj11_0p_cjj31_0p_ctu8_0p_ctd8_0p_ctj8_0p_cQu8_1p_cQd8_0p_ctu1_0p_ctd1_0p_ctj1_0p_cQu1_0p_cQd1_0p'> +4.3866085e+01 </wgt>
<wgt id='ctGRe_1p_cQj18_0p_cQj38_0p_cQj11_0p_cjj31_0p_ctu8_0p_ctd8_0p_ctj8_0p_cQu8_0p_cQd8_1p_ctu1_0p_ctd1_0p_ctj1_0p_cQu1_0p_cQd1_0p'> +4.3866085e+01 </wgt>
<wgt id='ctGRe_1p_cQj18_0p_cQj38_0p_cQj11_0p_cjj31_0p_ctu8_0p_ctd8_0p_ctj8_0p_cQu8_0p_cQd8_0p_ctu1_1p_ctd1_0p_ctj1_0p_cQu1_0p_cQd1_0p'> +4.3866085e+01 </wgt>
<wgt id='ctGRe_1p_cQj18_0p_cQj38_0p_cQj11_0p_cjj31_0p_ctu8_0p_ctd8_0p_ctj8_0p_cQu8_0p_cQd8_0p_ctu1_0p_ctd1_1p_ctj1_0p_cQu1_0p_cQd1_0p'> +4.3866085e+01 </wgt>
<wgt id='ctGRe_1p_cQj18_0p_cQj38_0p_cQj11_0p_cjj31_0p_ctu8_0p_ctd8_0p_ctj8_0p_cQu8_0p_cQd8_0p_ctu1_0p_ctd1_0p_ctj1_1p_cQu1_0p_cQd1_0p'> +4.3866085e+01 </wgt>
<wgt id='ctGRe_1p_cQj18_0p_cQj38_0p_cQj11_0p_cjj31_0p_ctu8_0p_ctd8_0p_ctj8_0p_cQu8_0p_cQd8_0p_ctu1_0p_ctd1_0p_ctj1_0p_cQu1_1p_cQd1_0p'> +4.3866085e+01 </wgt>
<wgt id='ctGRe_1p_cQj18_0p_cQj38_0p_cQj11_0p_cjj31_0p_ctu8_0p_ctd8_0p_ctj8_0p_cQu8_0p_cQd8_0p_ctu1_0p_ctd1_0p_ctj1_0p_cQu1_0p_cQd1_1p'> +4.3866085e+01 </wgt>
<wgt id='ctGRe_0p_cQj18_2p_cQj38_0p_cQj11_0p_cjj31_0p_ctu8_0p_ctd8_0p_ctj8_0p_cQu8_0p_cQd8_0p_ctu1_0p_ctd1_0p_ctj1_0p_cQu1_0p_cQd1_0p'> +6.1139206e+01 </wgt>
<wgt id='ctGRe_0p_cQj18_1p_cQj38_1p_cQj11_0p_cjj31_0p_ctu8_0p_ctd8_0p_ctj8_0p_cQu8_0p_cQd8_0p_ctu1_0p_ctd1_0p_ctj1_0p_cQu1_0p_cQd1_0p'> +6.1139206e+01 </wgt>
<wgt id='ctGRe_0p_cQj18_1p_cQj38_0p_cQj11_1p_cjj31_0p_ctu8_0p_ctd8_0p_ctj8_0p_cQu8_0p_cQd8_0p_ctu1_0p_ctd1_0p_ctj1_0p_cQu1_0p_cQd1_0p'> +6.1139206e+01 </wgt>
<wgt id='ctGRe_0p_cQj18_1p_cQj38_0p_cQj11_0p_cjj31_1p_ctu8_0p_ctd8_0p_ctj8_0p_cQu8_0p_cQd8_0p_ctu1_0p_ctd1_0p_ctj1_0p_cQu1_0p_cQd1_0p'> +6.1139206e+01 </wgt>
<wgt id='ctGRe_0p_cQj18_1p_cQj38_0p_cQj11_0p_cjj31_0p_ctu8_1p_ctd8_0p_ctj8_0p_cQu8_0p_cQd8_0p_ctu1_0p_ctd1_0p_ctj1_0p_cQu1_0p_cQd1_0p'> +6.1139206e+01 </wgt>
<wgt id='ctGRe_0p_cQj18_1p_cQj38_0p_cQj11_0p_cjj31_0p_ctu8_0p_ctd8_1p_ctj8_0p_cQu8_0p_cQd8_0p_ctu1_0p_ctd1_0p_ctj1_0p_cQu1_0p_cQd1_0p'> +6.1139206e+01 </wgt>
<wgt id='ctGRe_0p_cQj18_1p_cQj38_0p_cQj11_0p_cjj31_0p_ctu8_0p_ctd8_0p_ctj8_1p_cQu8_0p_cQd8_0p_ctu1_0p_ctd1_0p_ctj1_0p_cQu1_0p_cQd1_0p'> +6.1139206e+01 </wgt>
<wgt id='ctGRe_0p_cQj18_1p_cQj38_0p_cQj11_0p_cjj31_0p_ctu8_0p_ctd8_0p_ctj8_0p_cQu8_1p_cQd8_0p_ctu1_0p_ctd1_0p_ctj1_0p_cQu1_0p_cQd1_0p'> +6.1139206e+01 </wgt>
<wgt id='ctGRe_0p_cQj18_1p_cQj38_0p_cQj11_0p_cjj31_0p_ctu8_0p_ctd8_0p_ctj8_0p_cQu8_0p_cQd8_1p_ctu1_0p_ctd1_0p_ctj1_0p_cQu1_0p_cQd1_0p'> +6.1139206e+01 </wgt>
<wgt id='ctGRe_0p_cQj18_1p_cQj38_0p_cQj11_0p_cjj31_0p_ctu8_0p_ctd8_0p_ctj8_0p_cQu8_0p_cQd8_0p_ctu1_1p_ctd1_0p_ctj1_0p_cQu1_0p_cQd1_0p'> +6.1139206e+01 </wgt>
<wgt id='ctGRe_0p_cQj18_1p_cQj38_0p_cQj11_0p_cjj31_0p_ctu8_0p_ctd8_0p_ctj8_0p_cQu8_0p_cQd8_0p_ctu1_0p_ctd1_1p_ctj1_0p_cQu1_0p_cQd1_0p'> +6.1139206e+01 </wgt>
<wgt id='ctGRe_0p_cQj18_1p_cQj38_0p_cQj11_0p_cjj31_0p_ctu8_0p_ctd8_0p_ctj8_0p_cQu8_0p_cQd8_0p_ctu1_0p_ctd1_0p_ctj1_1p_cQu1_0p_cQd1_0p'> +6.1139206e+01 </wgt>
<wgt id='ctGRe_0p_cQj18_1p_cQj38_0p_cQj11_0p_cjj31_0p_ctu8_0p_ctd8_0p_ctj8_0p_cQu8_0p_cQd8_0p_ctu1_0p_ctd1_0p_ctj1_0p_cQu1_1p_cQd1_0p'> +6.1139206e+01 </wgt>
<wgt id='ctGRe_0p_cQj18_1p_cQj38_0p_cQj11_0p_cjj31_0p_ctu8_0p_ctd8_0p_ctj8_0p_cQu8_0p_cQd8_0p_ctu1_0p_ctd1_0p_ctj1_0p_cQu1_0p_cQd1_1p'> +6.1139206e+01 </wgt>
<wgt id='ctGRe_0p_cQj18_0p_cQj38_2p_cQj11_0p_cjj31_0p_ctu8_0p_ctd8_0p_ctj8_0p_cQu8_0p_cQd8_0p_ctu1_0p_ctd1_0p_ctj1_0p_cQu1_0p_cQd1_0p'> +6.1139206e+01 </wgt>
<wgt id='ctGRe_0p_cQj18_0p_cQj38_1p_cQj11_1p_cjj31_0p_ctu8_0p_ctd8_0p_ctj8_0p_cQu8_0p_cQd8_0p_ctu1_0p_ctd1_0p_ctj1_0p_cQu1_0p_cQd1_0p'> +6.1139206e+01 </wgt>
<wgt id='ctGRe_0p_cQj18_0p_cQj38_1p_cQj11_0p_cjj31_1p_ctu8_0p_ctd8_0p_ctj8_0p_cQu8_0p_cQd8_0p_ctu1_0p_ctd1_0p_ctj1_0p_cQu1_0p_cQd1_0p'> +6.1139206e+01 </wgt>
<wgt id='ctGRe_0p_cQj18_0p_cQj38_1p_cQj11_0p_cjj31_0p_ctu8_1p_ctd8_0p_ctj8_0p_cQu8_0p_cQd8_0p_ctu1_0p_ctd1_0p_ctj1_0p_cQu1_0p_cQd1_0p'> +6.1139206e+01 </wgt>
<wgt id='ctGRe_0p_cQj18_0p_cQj38_1p_cQj11_0p_cjj31_0p_ctu8_0p_ctd8_1p_ctj8_0p_cQu8_0p_cQd8_0p_ctu1_0p_ctd1_0p_ctj1_0p_cQu1_0p_cQd1_0p'> +6.1139206e+01 </wgt>
<wgt id='ctGRe_0p_cQj18_0p_cQj38_1p_cQj11_0p_cjj31_0p_ctu8_0p_ctd8_0p_ctj8_1p_cQu8_0p_cQd8_0p_ctu1_0p_ctd1_0p_ctj1_0p_cQu1_0p_cQd1_0p'> +6.1139206e+01 </wgt>
<wgt id='ctGRe_0p_cQj18_0p_cQj38_1p_cQj11_0p_cjj31_0p_ctu8_0p_ctd8_0p_ctj8_0p_cQu8_1p_cQd8_0p_ctu1_0p_ctd1_0p_ctj1_0p_cQu1_0p_cQd1_0p'> +6.1139206e+01 </wgt>
<wgt id='ctGRe_0p_cQj18_0p_cQj38_1p_cQj11_0p_cjj31_0p_ctu8_0p_ctd8_0p_ctj8_0p_cQu8_0p_cQd8_1p_ctu1_0p_ctd1_0p_ctj1_0p_cQu1_0p_cQd1_0p'> +6.1139206e+01 </wgt>
<wgt id='ctGRe_0p_cQj18_0p_cQj38_1p_cQj11_0p_cjj31_0p_ctu8_0p_ctd8_0p_ctj8_0p_cQu8_0p_cQd8_0p_ctu1_1p_ctd1_0p_ctj1_0p_cQu1_0p_cQd1_0p'> +6.1139206e+01 </wgt>
<wgt id='ctGRe_0p_cQj18_0p_cQj38_1p_cQj11_0p_cjj31_0p_ctu8_0p_ctd8_0p_ctj8_0p_cQu8_0p_cQd8_0p_ctu1_0p_ctd1_1p_ctj1_0p_cQu1_0p_cQd1_0p'> +6.1139206e+01 </wgt>
<wgt id='ctGRe_0p_cQj18_0p_cQj38_1p_cQj11_0p_cjj31_0p_ctu8_0p_ctd8_0p_ctj8_0p_cQu8_0p_cQd8_0p_ctu1_0p_ctd1_0p_ctj1_1p_cQu1_0p_cQd1_0p'> +6.1139206e+01 </wgt>
<wgt id='ctGRe_0p_cQj18_0p_cQj38_1p_cQj11_0p_cjj31_0p_ctu8_0p_ctd8_0p_ctj8_0p_cQu8_0p_cQd8_0p_ctu1_0p_ctd1_0p_ctj1_0p_cQu1_1p_cQd1_0p'> +6.1139206e+01 </wgt>
<wgt id='ctGRe_0p_cQj18_0p_cQj38_1p_cQj11_0p_cjj31_0p_ctu8_0p_ctd8_0p_ctj8_0p_cQu8_0p_cQd8_0p_ctu1_0p_ctd1_0p_ctj1_0p_cQu1_0p_cQd1_1p'> +6.1139206e+01 </wgt>
<wgt id='ctGRe_0p_cQj18_0p_cQj38_0p_cQj11_2p_cjj31_0p_ctu8_0p_ctd8_0p_ctj8_0p_cQu8_0p_cQd8_0p_ctu1_0p_ctd1_0p_ctj1_0p_cQu1_0p_cQd1_0p'> +6.1139206e+01 </wgt>
<wgt id='ctGRe_0p_cQj18_0p_cQj38_0p_cQj11_1p_cjj31_1p_ctu8_0p_ctd8_0p_ctj8_0p_cQu8_0p_cQd8_0p_ctu1_0p_ctd1_0p_ctj1_0p_cQu1_0p_cQd1_0p'> +6.1139206e+01 </wgt>
<wgt id='ctGRe_0p_cQj18_0p_cQj38_0p_cQj11_1p_cjj31_0p_ctu8_1p_ctd8_0p_ctj8_0p_cQu8_0p_cQd8_0p_ctu1_0p_ctd1_0p_ctj1_0p_cQu1_0p_cQd1_0p'> +6.1139206e+01 </wgt>
<wgt id='ctGRe_0p_cQj18_0p_cQj38_0p_cQj11_1p_cjj31_0p_ctu8_0p_ctd8_1p_ctj8_0p_cQu8_0p_cQd8_0p_ctu1_0p_ctd1_0p_ctj1_0p_cQu1_0p_cQd1_0p'> +6.1139206e+01 </wgt>
<wgt id='ctGRe_0p_cQj18_0p_cQj38_0p_cQj11_1p_cjj31_0p_ctu8_0p_ctd8_0p_ctj8_1p_cQu8_0p_cQd8_0p_ctu1_0p_ctd1_0p_ctj1_0p_cQu1_0p_cQd1_0p'> +6.1139206e+01 </wgt>
<wgt id='ctGRe_0p_cQj18_0p_cQj38_0p_cQj11_1p_cjj31_0p_ctu8_0p_ctd8_0p_ctj8_0p_cQu8_1p_cQd8_0p_ctu1_0p_ctd1_0p_ctj1_0p_cQu1_0p_cQd1_0p'> +6.1139206e+01 </wgt>
<wgt id='ctGRe_0p_cQj18_0p_cQj38_0p_cQj11_1p_cjj31_0p_ctu8_0p_ctd8_0p_ctj8_0p_cQu8_0p_cQd8_1p_ctu1_0p_ctd1_0p_ctj1_0p_cQu1_0p_cQd1_0p'> +6.1139206e+01 </wgt>
<wgt id='ctGRe_0p_cQj18_0p_cQj38_0p_cQj11_1p_cjj31_0p_ctu8_0p_ctd8_0p_ctj8_0p_cQu8_0p_cQd8_0p_ctu1_1p_ctd1_0p_ctj1_0p_cQu1_0p_cQd1_0p'> +6.1139206e+01 </wgt>
<wgt id='ctGRe_0p_cQj18_0p_cQj38_0p_cQj11_1p_cjj31_0p_ctu8_0p_ctd8_0p_ctj8_0p_cQu8_0p_cQd8_0p_ctu1_0p_ctd1_1p_ctj1_0p_cQu1_0p_cQd1_0p'> +6.1139206e+01 </wgt>
<wgt id='ctGRe_0p_cQj18_0p_cQj38_0p_cQj11_1p_cjj31_0p_ctu8_0p_ctd8_0p_ctj8_0p_cQu8_0p_cQd8_0p_ctu1_0p_ctd1_0p_ctj1_1p_cQu1_0p_cQd1_0p'> +6.1139206e+01 </wgt>
<wgt id='ctGRe_0p_cQj18_0p_cQj38_0p_cQj11_1p_cjj31_0p_ctu8_0p_ctd8_0p_ctj8_0p_cQu8_0p_cQd8_0p_ctu1_0p_ctd1_0p_ctj1_0p_cQu1_1p_cQd1_0p'> +6.1139206e+01 </wgt>
<wgt id='ctGRe_0p_cQj18_0p_cQj38_0p_cQj11_1p_cjj31_0p_ctu8_0p_ctd8_0p_ctj8_0p_cQu8_0p_cQd8_0p_ctu1_0p_ctd1_0p_ctj1_0p_cQu1_0p_cQd1_1p'> +6.1139206e+01 </wgt>
<wgt id='ctGRe_0p_cQj18_0p_cQj38_0p_cQj11_0p_cjj31_2p_ctu8_0p_ctd8_0p_ctj8_0p_cQu8_0p_cQd8_0p_ctu1_0p_ctd1_0p_ctj1_0p_cQu1_0p_cQd1_0p'> +6.1139206e+01 </wgt>
<wgt id='ctGRe_0p_cQj18_0p_cQj38_0p_cQj11_0p_cjj31_1p_ctu8_1p_ctd8_0p_ctj8_0p_cQu8_0p_cQd8_0p_ctu1_0p_ctd1_0p_ctj1_0p_cQu1_0p_cQd1_0p'> +6.1139206e+01 </wgt>
<wgt id='ctGRe_0p_cQj18_0p_cQj38_0p_cQj11_0p_cjj31_1p_ctu8_0p_ctd8_1p_ctj8_0p_cQu8_0p_cQd8_0p_ctu1_0p_ctd1_0p_ctj1_0p_cQu1_0p_cQd1_0p'> +6.1139206e+01 </wgt>
<wgt id='ctGRe_0p_cQj18_0p_cQj38_0p_cQj11_0p_cjj31_1p_ctu8_0p_ctd8_0p_ctj8_1p_cQu8_0p_cQd8_0p_ctu1_0p_ctd1_0p_ctj1_0p_cQu1_0p_cQd1_0p'> +6.1139206e+01 </wgt>
<wgt id='ctGRe_0p_cQj18_0p_cQj38_0p_cQj11_0p_cjj31_1p_ctu8_0p_ctd8_0p_ctj8_0p_cQu8_1p_cQd8_0p_ctu1_0p_ctd1_0p_ctj1_0p_cQu1_0p_cQd1_0p'> +6.1139206e+01 </wgt>
<wgt id='ctGRe_0p_cQj18_0p_cQj38_0p_cQj11_0p_cjj31_1p_ctu8_0p_ctd8_0p_ctj8_0p_cQu8_0p_cQd8_1p_ctu1_0p_ctd1_0p_ctj1_0p_cQu1_0p_cQd1_0p'> +6.1139206e+01 </wgt>
<wgt id='ctGRe_0p_cQj18_0p_cQj38_0p_cQj11_0p_cjj31_1p_ctu8_0p_ctd8_0p_ctj8_0p_cQu8_0p_cQd8_0p_ctu1_1p_ctd1_0p_ctj1_0p_cQu1_0p_cQd1_0p'> +6.1139206e+01 </wgt>
<wgt id='ctGRe_0p_cQj18_0p_cQj38_0p_cQj11_0p_cjj31_1p_ctu8_0p_ctd8_0p_ctj8_0p_cQu8_0p_cQd8_0p_ctu1_0p_ctd1_1p_ctj1_0p_cQu1_0p_cQd1_0p'> +6.1139206e+01 </wgt>
<wgt id='ctGRe_0p_cQj18_0p_cQj38_0p_cQj11_0p_cjj31_1p_ctu8_0p_ctd8_0p_ctj8_0p_cQu8_0p_cQd8_0p_ctu1_0p_ctd1_0p_ctj1_1p_cQu1_0p_cQd1_0p'> +6.1139206e+01 </wgt>
<wgt id='ctGRe_0p_cQj18_0p_cQj38_0p_cQj11_0p_cjj31_1p_ctu8_0p_ctd8_0p_ctj8_0p_cQu8_0p_cQd8_0p_ctu1_0p_ctd1_0p_ctj1_0p_cQu1_1p_cQd1_0p'> +6.1139206e+01 </wgt>
<wgt id='ctGRe_0p_cQj18_0p_cQj38_0p_cQj11_0p_cjj31_1p_ctu8_0p_ctd8_0p_ctj8_0p_cQu8_0p_cQd8_0p_ctu1_0p_ctd1_0p_ctj1_0p_cQu1_0p_cQd1_1p'> +6.1139206e+01 </wgt>
<wgt id='ctGRe_0p_cQj18_0p_cQj38_0p_cQj11_0p_cjj31_0p_ctu8_2p_ctd8_0p_ctj8_0p_cQu8_0p_cQd8_0p_ctu1_0p_ctd1_0p_ctj1_0p_cQu1_0p_cQd1_0p'> +6.1139206e+01 </wgt>
<wgt id='ctGRe_0p_cQj18_0p_cQj38_0p_cQj11_0p_cjj31_0p_ctu8_1p_ctd8_1p_ctj8_0p_cQu8_0p_cQd8_0p_ctu1_0p_ctd1_0p_ctj1_0p_cQu1_0p_cQd1_0p'> +6.1139206e+01 </wgt>
<wgt id='ctGRe_0p_cQj18_0p_cQj38_0p_cQj11_0p_cjj31_0p_ctu8_1p_ctd8_0p_ctj8_1p_cQu8_0p_cQd8_0p_ctu1_0p_ctd1_0p_ctj1_0p_cQu1_0p_cQd1_0p'> +6.1139206e+01 </wgt>
<wgt id='ctGRe_0p_cQj18_0p_cQj38_0p_cQj11_0p_cjj31_0p_ctu8_1p_ctd8_0p_ctj8_0p_cQu8_1p_cQd8_0p_ctu1_0p_ctd1_0p_ctj1_0p_cQu1_0p_cQd1_0p'> +6.1139206e+01 </wgt>
<wgt id='ctGRe_0p_cQj18_0p_cQj38_0p_cQj11_0p_cjj31_0p_ctu8_1p_ctd8_0p_ctj8_0p_cQu8_0p_cQd8_1p_ctu1_0p_ctd1_0p_ctj1_0p_cQu1_0p_cQd1_0p'> +6.1139206e+01 </wgt>
<wgt id='ctGRe_0p_cQj18_0p_cQj38_0p_cQj11_0p_cjj31_0p_ctu8_1p_ctd8_0p_ctj8_0p_cQu8_0p_cQd8_0p_ctu1_1p_ctd1_0p_ctj1_0p_cQu1_0p_cQd1_0p'> +6.1139206e+01 </wgt>
<wgt id='ctGRe_0p_cQj18_0p_cQj38_0p_cQj11_0p_cjj31_0p_ctu8_1p_ctd8_0p_ctj8_0p_cQu8_0p_cQd8_0p_ctu1_0p_ctd1_1p_ctj1_0p_cQu1_0p_cQd1_0p'> +6.1139206e+01 </wgt>
<wgt id='ctGRe_0p_cQj18_0p_cQj38_0p_cQj11_0p_cjj31_0p_ctu8_1p_ctd8_0p_ctj8_0p_cQu8_0p_cQd8_0p_ctu1_0p_ctd1_0p_ctj1_1p_cQu1_0p_cQd1_0p'> +6.1139206e+01 </wgt>
<wgt id='ctGRe_0p_cQj18_0p_cQj38_0p_cQj11_0p_cjj31_0p_ctu8_1p_ctd8_0p_ctj8_0p_cQu8_0p_cQd8_0p_ctu1_0p_ctd1_0p_ctj1_0p_cQu1_1p_cQd1_0p'> +6.1139206e+01 </wgt>
<wgt id='ctGRe_0p_cQj18_0p_cQj38_0p_cQj11_0p_cjj31_0p_ctu8_1p_ctd8_0p_ctj8_0p_cQu8_0p_cQd8_0p_ctu1_0p_ctd1_0p_ctj1_0p_cQu1_0p_cQd1_1p'> +6.1139206e+01 </wgt>
<wgt id='ctGRe_0p_cQj18_0p_cQj38_0p_cQj11_0p_cjj31_0p_ctu8_0p_ctd8_2p_ctj8_0p_cQu8_0p_cQd8_0p_ctu1_0p_ctd1_0p_ctj1_0p_cQu1_0p_cQd1_0p'> +6.1139206e+01 </wgt>
<wgt id='ctGRe_0p_cQj18_0p_cQj38_0p_cQj11_0p_cjj31_0p_ctu8_0p_ctd8_1p_ctj8_1p_cQu8_0p_cQd8_0p_ctu1_0p_ctd1_0p_ctj1_0p_cQu1_0p_cQd1_0p'> +6.1139206e+01 </wgt>
<wgt id='ctGRe_0p_cQj18_0p_cQj38_0p_cQj11_0p_cjj31_0p_ctu8_0p_ctd8_1p_ctj8_0p_cQu8_1p_cQd8_0p_ctu1_0p_ctd1_0p_ctj1_0p_cQu1_0p_cQd1_0p'> +6.1139206e+01 </wgt>
<wgt id='ctGRe_0p_cQj18_0p_cQj38_0p_cQj11_0p_cjj31_0p_ctu8_0p_ctd8_1p_ctj8_0p_cQu8_0p_cQd8_1p_ctu1_0p_ctd1_0p_ctj1_0p_cQu1_0p_cQd1_0p'> +6.1139206e+01 </wgt>
<wgt id='ctGRe_0p_cQj18_0p_cQj38_0p_cQj11_0p_cjj31_0p_ctu8_0p_ctd8_1p_ctj8_0p_cQu8_0p_cQd8_0p_ctu1_1p_ctd1_0p_ctj1_0p_cQu1_0p_cQd1_0p'> +6.1139206e+01 </wgt>
<wgt id='ctGRe_0p_cQj18_0p_cQj38_0p_cQj11_0p_cjj31_0p_ctu8_0p_ctd8_1p_ctj8_0p_cQu8_0p_cQd8_0p_ctu1_0p_ctd1_1p_ctj1_0p_cQu1_0p_cQd1_0p'> +6.1139206e+01 </wgt>
<wgt id='ctGRe_0p_cQj18_0p_cQj38_0p_cQj11_0p_cjj31_0p_ctu8_0p_ctd8_1p_ctj8_0p_cQu8_0p_cQd8_0p_ctu1_0p_ctd1_0p_ctj1_1p_cQu1_0p_cQd1_0p'> +6.1139206e+01 </wgt>
<wgt id='ctGRe_0p_cQj18_0p_cQj38_0p_cQj11_0p_cjj31_0p_ctu8_0p_ctd8_1p_ctj8_0p_cQu8_0p_cQd8_0p_ctu1_0p_ctd1_0p_ctj1_0p_cQu1_1p_cQd1_0p'> +6.1139206e+01 </wgt>
<wgt id='ctGRe_0p_cQj18_0p_cQj38_0p_cQj11_0p_cjj31_0p_ctu8_0p_ctd8_1p_ctj8_0p_cQu8_0p_cQd8_0p_ctu1_0p_ctd1_0p_ctj1_0p_cQu1_0p_cQd1_1p'> +6.1139206e+01 </wgt>
<wgt id='ctGRe_0p_cQj18_0p_cQj38_0p_cQj11_0p_cjj31_0p_ctu8_0p_ctd8_0p_ctj8_2p_cQu8_0p_cQd8_0p_ctu1_0p_ctd1_0p_ctj1_0p_cQu1_0p_cQd1_0p'> +6.1139206e+01 </wgt>
<wgt id='ctGRe_0p_cQj18_0p_cQj38_0p_cQj11_0p_cjj31_0p_ctu8_0p_ctd8_0p_ctj8_1p_cQu8_1p_cQd8_0p_ctu1_0p_ctd1_0p_ctj1_0p_cQu1_0p_cQd1_0p'> +6.1139206e+01 </wgt>
<wgt id='ctGRe_0p_cQj18_0p_cQj38_0p_cQj11_0p_cjj31_0p_ctu8_0p_ctd8_0p_ctj8_1p_cQu8_0p_cQd8_1p_ctu1_0p_ctd1_0p_ctj1_0p_cQu1_0p_cQd1_0p'> +6.1139206e+01 </wgt>
<wgt id='ctGRe_0p_cQj18_0p_cQj38_0p_cQj11_0p_cjj31_0p_ctu8_0p_ctd8_0p_ctj8_1p_cQu8_0p_cQd8_0p_ctu1_1p_ctd1_0p_ctj1_0p_cQu1_0p_cQd1_0p'> +6.1139206e+01 </wgt>
<wgt id='ctGRe_0p_cQj18_0p_cQj38_0p_cQj11_0p_cjj31_0p_ctu8_0p_ctd8_0p_ctj8_1p_cQu8_0p_cQd8_0p_ctu1_0p_ctd1_1p_ctj1_0p_cQu1_0p_cQd1_0p'> +6.1139206e+01 </wgt>
<wgt id='ctGRe_0p_cQj18_0p_cQj38_0p_cQj11_0p_cjj31_0p_ctu8_0p_ctd8_0p_ctj8_1p_cQu8_0p_cQd8_0p_ctu1_0p_ctd1_0p_ctj1_1p_cQu1_0p_cQd1_0p'> +6.1139206e+01 </wgt>
<wgt id='ctGRe_0p_cQj18_0p_cQj38_0p_cQj11_0p_cjj31_0p_ctu8_0p_ctd8_0p_ctj8_1p_cQu8_0p_cQd8_0p_ctu1_0p_ctd1_0p_ctj1_0p_cQu1_1p_cQd1_0p'> +6.1139206e+01 </wgt>
<wgt id='ctGRe_0p_cQj18_0p_cQj38_0p_cQj11_0p_cjj31_0p_ctu8_0p_ctd8_0p_ctj8_1p_cQu8_0p_cQd8_0p_ctu1_0p_ctd1_0p_ctj1_0p_cQu1_0p_cQd1_1p'> +6.1139206e+01 </wgt>
<wgt id='ctGRe_0p_cQj18_0p_cQj38_0p_cQj11_0p_cjj31_0p_ctu8_0p_ctd8_0p_ctj8_0p_cQu8_2p_cQd8_0p_ctu1_0p_ctd1_0p_ctj1_0p_cQu1_0p_cQd1_0p'> +6.1139206e+01 </wgt>
<wgt id='ctGRe_0p_cQj18_0p_cQj38_0p_cQj11_0p_cjj31_0p_ctu8_0p_ctd8_0p_ctj8_0p_cQu8_1p_cQd8_1p_ctu1_0p_ctd1_0p_ctj1_0p_cQu1_0p_cQd1_0p'> +6.1139206e+01 </wgt>
<wgt id='ctGRe_0p_cQj18_0p_cQj38_0p_cQj11_0p_cjj31_0p_ctu8_0p_ctd8_0p_ctj8_0p_cQu8_1p_cQd8_0p_ctu1_1p_ctd1_0p_ctj1_0p_cQu1_0p_cQd1_0p'> +6.1139206e+01 </wgt>
<wgt id='ctGRe_0p_cQj18_0p_cQj38_0p_cQj11_0p_cjj31_0p_ctu8_0p_ctd8_0p_ctj8_0p_cQu8_1p_cQd8_0p_ctu1_0p_ctd1_1p_ctj1_0p_cQu1_0p_cQd1_0p'> +6.1139206e+01 </wgt>
<wgt id='ctGRe_0p_cQj18_0p_cQj38_0p_cQj11_0p_cjj31_0p_ctu8_0p_ctd8_0p_ctj8_0p_cQu8_1p_cQd8_0p_ctu1_0p_ctd1_0p_ctj1_1p_cQu1_0p_cQd1_0p'> +6.1139206e+01 </wgt>
<wgt id='ctGRe_0p_cQj18_0p_cQj38_0p_cQj11_0p_cjj31_0p_ctu8_0p_ctd8_0p_ctj8_0p_cQu8_1p_cQd8_0p_ctu1_0p_ctd1_0p_ctj1_0p_cQu1_1p_cQd1_0p'> +6.1139206e+01 </wgt>
<wgt id='ctGRe_0p_cQj18_0p_cQj38_0p_cQj11_0p_cjj31_0p_ctu8_0p_ctd8_0p_ctj8_0p_cQu8_1p_cQd8_0p_ctu1_0p_ctd1_0p_ctj1_0p_cQu1_0p_cQd1_1p'> +6.1139206e+01 </wgt>
<wgt id='ctGRe_0p_cQj18_0p_cQj38_0p_cQj11_0p_cjj31_0p_ctu8_0p_ctd8_0p_ctj8_0p_cQu8_0p_cQd8_2p_ctu1_0p_ctd1_0p_ctj1_0p_cQu1_0p_cQd1_0p'> +6.1139206e+01 </wgt>
<wgt id='ctGRe_0p_cQj18_0p_cQj38_0p_cQj11_0p_cjj31_0p_ctu8_0p_ctd8_0p_ctj8_0p_cQu8_0p_cQd8_1p_ctu1_1p_ctd1_0p_ctj1_0p_cQu1_0p_cQd1_0p'> +6.1139206e+01 </wgt>
<wgt id='ctGRe_0p_cQj18_0p_cQj38_0p_cQj11_0p_cjj31_0p_ctu8_0p_ctd8_0p_ctj8_0p_cQu8_0p_cQd8_1p_ctu1_0p_ctd1_1p_ctj1_0p_cQu1_0p_cQd1_0p'> +6.1139206e+01 </wgt>
<wgt id='ctGRe_0p_cQj18_0p_cQj38_0p_cQj11_0p_cjj31_0p_ctu8_0p_ctd8_0p_ctj8_0p_cQu8_0p_cQd8_1p_ctu1_0p_ctd1_0p_ctj1_1p_cQu1_0p_cQd1_0p'> +6.1139206e+01 </wgt>
<wgt id='ctGRe_0p_cQj18_0p_cQj38_0p_cQj11_0p_cjj31_0p_ctu8_0p_ctd8_0p_ctj8_0p_cQu8_0p_cQd8_1p_ctu1_0p_ctd1_0p_ctj1_0p_cQu1_1p_cQd1_0p'> +6.1139206e+01 </wgt>
<wgt id='ctGRe_0p_cQj18_0p_cQj38_0p_cQj11_0p_cjj31_0p_ctu8_0p_ctd8_0p_ctj8_0p_cQu8_0p_cQd8_1p_ctu1_0p_ctd1_0p_ctj1_0p_cQu1_0p_cQd1_1p'> +6.1139206e+01 </wgt>
<wgt id='ctGRe_0p_cQj18_0p_cQj38_0p_cQj11_0p_cjj31_0p_ctu8_0p_ctd8_0p_ctj8_0p_cQu8_0p_cQd8_0p_ctu1_2p_ctd1_0p_ctj1_0p_cQu1_0p_cQd1_0p'> +6.1139206e+01 </wgt>
<wgt id='ctGRe_0p_cQj18_0p_cQj38_0p_cQj11_0p_cjj31_0p_ctu8_0p_ctd8_0p_ctj8_0p_cQu8_0p_cQd8_0p_ctu1_1p_ctd1_1p_ctj1_0p_cQu1_0p_cQd1_0p'> +6.1139206e+01 </wgt>
<wgt id='ctGRe_0p_cQj18_0p_cQj38_0p_cQj11_0p_cjj31_0p_ctu8_0p_ctd8_0p_ctj8_0p_cQu8_0p_cQd8_0p_ctu1_1p_ctd1_0p_ctj1_1p_cQu1_0p_cQd1_0p'> +6.1139206e+01 </wgt>
<wgt id='ctGRe_0p_cQj18_0p_cQj38_0p_cQj11_0p_cjj31_0p_ctu8_0p_ctd8_0p_ctj8_0p_cQu8_0p_cQd8_0p_ctu1_1p_ctd1_0p_ctj1_0p_cQu1_1p_cQd1_0p'> +6.1139206e+01 </wgt>
<wgt id='ctGRe_0p_cQj18_0p_cQj38_0p_cQj11_0p_cjj31_0p_ctu8_0p_ctd8_0p_ctj8_0p_cQu8_0p_cQd8_0p_ctu1_1p_ctd1_0p_ctj1_0p_cQu1_0p_cQd1_1p'> +6.1139206e+01 </wgt>
<wgt id='ctGRe_0p_cQj18_0p_cQj38_0p_cQj11_0p_cjj31_0p_ctu8_0p_ctd8_0p_ctj8_0p_cQu8_0p_cQd8_0p_ctu1_0p_ctd1_2p_ctj1_0p_cQu1_0p_cQd1_0p'> +6.1139206e+01 </wgt>
<wgt id='ctGRe_0p_cQj18_0p_cQj38_0p_cQj11_0p_cjj31_0p_ctu8_0p_ctd8_0p_ctj8_0p_cQu8_0p_cQd8_0p_ctu1_0p_ctd1_1p_ctj1_1p_cQu1_0p_cQd1_0p'> +6.1139206e+01 </wgt>
<wgt id='ctGRe_0p_cQj18_0p_cQj38_0p_cQj11_0p_cjj31_0p_ctu8_0p_ctd8_0p_ctj8_0p_cQu8_0p_cQd8_0p_ctu1_0p_ctd1_1p_ctj1_0p_cQu1_1p_cQd1_0p'> +6.1139206e+01 </wgt>
<wgt id='ctGRe_0p_cQj18_0p_cQj38_0p_cQj11_0p_cjj31_0p_ctu8_0p_ctd8_0p_ctj8_0p_cQu8_0p_cQd8_0p_ctu1_0p_ctd1_1p_ctj1_0p_cQu1_0p_cQd1_1p'> +6.1139206e+01 </wgt>
<wgt id='ctGRe_0p_cQj18_0p_cQj38_0p_cQj11_0p_cjj31_0p_ctu8_0p_ctd8_0p_ctj8_0p_cQu8_0p_cQd8_0p_ctu1_0p_ctd1_0p_ctj1_2p_cQu1_0p_cQd1_0p'> +6.1139206e+01 </wgt>
<wgt id='ctGRe_0p_cQj18_0p_cQj38_0p_cQj11_0p_cjj31_0p_ctu8_0p_ctd8_0p_ctj8_0p_cQu8_0p_cQd8_0p_ctu1_0p_ctd1_0p_ctj1_1p_cQu1_1p_cQd1_0p'> +6.1139206e+01 </wgt>
<wgt id='ctGRe_0p_cQj18_0p_cQj38_0p_cQj11_0p_cjj31_0p_ctu8_0p_ctd8_0p_ctj8_0p_cQu8_0p_cQd8_0p_ctu1_0p_ctd1_0p_ctj1_1p_cQu1_0p_cQd1_1p'> +6.1139206e+01 </wgt>
<wgt id='ctGRe_0p_cQj18_0p_cQj38_0p_cQj11_0p_cjj31_0p_ctu8_0p_ctd8_0p_ctj8_0p_cQu8_0p_cQd8_0p_ctu1_0p_ctd1_0p_ctj1_0p_cQu1_2p_cQd1_0p'> +6.1139206e+01 </wgt>
<wgt id='ctGRe_0p_cQj18_0p_cQj38_0p_cQj11_0p_cjj31_0p_ctu8_0p_ctd8_0p_ctj8_0p_cQu8_0p_cQd8_0p_ctu1_0p_ctd1_0p_ctj1_0p_cQu1_1p_cQd1_1p'> +6.1139206e+01 </wgt>
<wgt id='ctGRe_0p_cQj18_0p_cQj38_0p_cQj11_0p_cjj31_0p_ctu8_0p_ctd8_0p_ctj8_0p_cQu8_0p_cQd8_0p_ctu1_0p_ctd1_0p_ctj1_0p_cQu1_0p_cQd1_2p'> +6.1139206e+01 </wgt>
<wgt id='1001'> +6.1139206e+01 </wgt>
<wgt id='1002'> +5.1883169e+01 </wgt>
<wgt id='1003'> +5.1852581e+01 </wgt>
<wgt id='1004'> +6.8217607e+01 </wgt>
<wgt id='1005'> +4.2566897e+01 </wgt>
<wgt id='1006'> +5.1177933e+01 </wgt>
<wgt id='1007'> +4.3841695e+01 </wgt>
<wgt id='1008'> +4.3817294e+01 </wgt>
<wgt id='1009'> +5.6721151e+01 </wgt>
<wgt id='1010'> +3.6351942e+01 </wgt>
<wgt id='1011'> +7.4382455e+01 </wgt>
<wgt id='1012'> +6.2401498e+01 </wgt>
<wgt id='1013'> +6.2362257e+01 </wgt>
<wgt id='1014'> +8.3679032e+01 </wgt>
<wgt id='1015'> +5.0551808e+01 </wgt>
<wgt id='1016'> +5.5920657e+01 </wgt>
<wgt id='1017'> +4.7510981e+01 </wgt>
<wgt id='1018'> +4.7483228e+01 </wgt>
<wgt id='1019'> +6.2362257e+01 </wgt>
<wgt id='1020'> +3.9054748e+01 </wgt>
<wgt id='1021'> +4.6809631e+01 </wgt>
<wgt id='1022'> +4.0147162e+01 </wgt>
<wgt id='1023'> +4.0125033e+01 </wgt>
<wgt id='1024'> +5.1852581e+01 </wgt>
<wgt id='1025'> +3.3352581e+01 </wgt>
<wgt id='1026'> +6.8033526e+01 </wgt>
<wgt id='1027'> +5.7142932e+01 </wgt>
<wgt id='1028'> +5.7107307e+01 </wgt>
<wgt id='1029'> +7.6496575e+01 </wgt>
<wgt id='1030'> +4.6380832e+01 </wgt>
<wgt id='1031'> +6.6907824e+01 </wgt>
<wgt id='1032'> +5.6754741e+01 </wgt>
<wgt id='1033'> +5.6721151e+01 </wgt>
<wgt id='1034'> +7.4640602e+01 </wgt>
<wgt id='1035'> +4.6507901e+01 </wgt>
<wgt id='1036'> +5.6006683e+01 </wgt>
<wgt id='1037'> +4.7958213e+01 </wgt>
<wgt id='1038'> +4.7931410e+01 </wgt>
<wgt id='1039'> +6.2061703e+01 </wgt>
<wgt id='1040'> +3.9717541e+01 </wgt>
<wgt id='1041'> +8.1400603e+01 </wgt>
<wgt id='1042'> +6.8260689e+01 </wgt>
<wgt id='1043'> +6.8217607e+01 </wgt>
<wgt id='1044'> +9.1557790e+01 </wgt>
<wgt id='1045'> +5.5232084e+01 </wgt>
<wgt id='1046'> +6.1139206e+01 </wgt>
<wgt id='1047'> +6.1139206e+01 </wgt>
<wgt id='1048'> +6.1139206e+01 </wgt>
<wgt id='1049'> +6.1154357e+01 </wgt>
<wgt id='1050'> +6.1040360e+01 </wgt>
<wgt id='1051'> +6.1270191e+01 </wgt>
<wgt id='1052'> +6.1207570e+01 </wgt>
<wgt id='1053'> +6.0779690e+01 </wgt>
<wgt id='1054'> +6.1555344e+01 </wgt>
<wgt id='1055'> +6.1019083e+01 </wgt>
<wgt id='1056'> +6.0846057e+01 </wgt>
<wgt id='1057'> +6.0863246e+01 </wgt>
<wgt id='1058'> +6.1114783e+01 </wgt>
<wgt id='1059'> +6.1639416e+01 </wgt>
<wgt id='1060'> +6.1074717e+01 </wgt>
<wgt id='1061'> +6.1249866e+01 </wgt>
<wgt id='1062'> +6.1225870e+01 </wgt>
<wgt id='1063'> +6.1343673e+01 </wgt>
<wgt id='1064'> +6.1208383e+01 </wgt>
<wgt id='1065'> +6.1420007e+01 </wgt>
<wgt id='1066'> +6.1122039e+01 </wgt>
<wgt id='1067'> +6.0643101e+01 </wgt>
<wgt id='1068'> +6.1342274e+01 </wgt>
<wgt id='1069'> +6.1185579e+01 </wgt>
<wgt id='1070'> +6.1161571e+01 </wgt>
<wgt id='1071'> +6.1409650e+01 </wgt>
<wgt id='1072'> +6.1009526e+01 </wgt>
<wgt id='1073'> +6.0985578e+01 </wgt>
<wgt id='1074'> +6.0983379e+01 </wgt>
<wgt id='1075'> +6.0747206e+01 </wgt>
<wgt id='1076'> +6.1168938e+01 </wgt>
<wgt id='1077'> +6.0429872e+01 </wgt>
<wgt id='1078'> +6.1042889e+01 </wgt>
<wgt id='1079'> +6.0954783e+01 </wgt>
<wgt id='1080'> +6.0885946e+01 </wgt>
<wgt id='1081'> +6.0954227e+01 </wgt>
<wgt id='1082'> +6.1266456e+01 </wgt>
<wgt id='1083'> +6.1401264e+01 </wgt>
<wgt id='1084'> +6.1142144e+01 </wgt>
<wgt id='1085'> +6.0781815e+01 </wgt>
<wgt id='1086'> +6.1698782e+01 </wgt>
<wgt id='1087'> +6.1287538e+01 </wgt>
<wgt id='1088'> +6.0962318e+01 </wgt>
<wgt id='1089'> +6.0995862e+01 </wgt>
<wgt id='1090'> +6.1359409e+01 </wgt>
<wgt id='1091'> +6.1253595e+01 </wgt>
<wgt id='1092'> +6.1111184e+01 </wgt>
<wgt id='1093'> +6.1144858e+01 </wgt>
<wgt id='1094'> +6.0730570e+01 </wgt>
<wgt id='1095'> +6.1323436e+01 </wgt>
<wgt id='1096'> +6.1140922e+01 </wgt>
<wgt id='1097'> +6.0860100e+01 </wgt>
<wgt id='1098'> +6.1018104e+01 </wgt>
<wgt id='1099'> +6.1121072e+01 </wgt>
<wgt id='1100'> +6.1203039e+01 </wgt>
<wgt id='1101'> +6.1134137e+01 </wgt>
<wgt id='1102'> +6.1128738e+01 </wgt>
<wgt id='1103'> +6.0813665e+01 </wgt>
<wgt id='1104'> +6.1248637e+01 </wgt>
<wgt id='1105'> +6.1139236e+01 </wgt>
<wgt id='1106'> +6.1263515e+01 </wgt>
<wgt id='1107'> +6.1284861e+01 </wgt>
<wgt id='1108'> +6.1045969e+01 </wgt>
<wgt id='1109'> +6.1176207e+01 </wgt>
<wgt id='1110'> +6.1128253e+01 </wgt>
<wgt id='1111'> +6.1311566e+01 </wgt>
<wgt id='1112'> +6.1077326e+01 </wgt>
<wgt id='1113'> +6.1223095e+01 </wgt>
<wgt id='1114'> +6.1078812e+01 </wgt>
<wgt id='1115'> +6.0897072e+01 </wgt>
<wgt id='1116'> +6.1448022e+01 </wgt>
<wgt id='1117'> +6.1096485e+01 </wgt>
<wgt id='1118'> +6.1285356e+01 </wgt>
<wgt id='1119'> +6.0953046e+01 </wgt>
<wgt id='1120'> +6.0939418e+01 </wgt>
<wgt id='1121'> +6.1140594e+01 </wgt>
<wgt id='1122'> +6.0975177e+01 </wgt>
<wgt id='1123'> +6.1106877e+01 </wgt>
<wgt id='1124'> +6.1192755e+01 </wgt>
<wgt id='1125'> +6.1194961e+01 </wgt>
<wgt id='1126'> +6.1179903e+01 </wgt>
<wgt id='1127'> +6.1127272e+01 </wgt>
<wgt id='1128'> +6.1109569e+01 </wgt>
<wgt id='1129'> +6.1050618e+01 </wgt>
<wgt id='1130'> +6.1159347e+01 </wgt>
<wgt id='1131'> +6.1358957e+01 </wgt>
<wgt id='1132'> +6.1096061e+01 </wgt>
<wgt id='1133'> +6.1205853e+01 </wgt>
<wgt id='1134'> +6.1096369e+01 </wgt>
<wgt id='1135'> +6.1152948e+01 </wgt>
<wgt id='1136'> +6.1090859e+01 </wgt>
<wgt id='1137'> +6.1066567e+01 </wgt>
<wgt id='1138'> +6.1182996e+01 </wgt>
<wgt id='1139'> +6.1208553e+01 </wgt>
<wgt id='1140'> +6.1227104e+01 </wgt>
<wgt id='1141'> +6.1041543e+01 </wgt>
<wgt id='1142'> +6.1129521e+01 </wgt>
<wgt id='1143'> +6.1209769e+01 </wgt>
<wgt id='1144'> +6.1116567e+01 </wgt>
<wgt id='1145'> +6.1192328e+01 </wgt>
<wgt id='1146'> +6.1177330e+01 </wgt>
<wgt id='1147'> +6.1164542e+01 </wgt>
<wgt id='1148'> +6.1139206e+01 </wgt>
<wgt id='1149'> +5.9359967e+01 </wgt>
<wgt id='1150'> +6.3708028e+01 </wgt>
<wgt id='1151'> +6.1139206e+01 </wgt>
<wgt id='1152'> +5.9668335e+01 </wgt>
<wgt id='1153'> +5.9841705e+01 </wgt>
<wgt id='1154'> +5.8902218e+01 </wgt>
<wgt id='1155'> +6.1070182e+01 </wgt>
<wgt id='1156'> +5.9112976e+01 </wgt>
<wgt id='1157'> +6.3526860e+01 </wgt>
<wgt id='1158'> +6.1794090e+01 </wgt>
<wgt id='1159'> +6.0745530e+01 </wgt>
<wgt id='1160'> +5.9468838e+01 </wgt>
<wgt id='1161'> +6.2622497e+01 </wgt>
<wgt id='1162'> +5.8532199e+01 </wgt>
<wgt id='1163'> +6.4008084e+01 </wgt>
<wgt id='1164'> +6.1832867e+01 </wgt>
<wgt id='1165'> +6.2054328e+01 </wgt>
<wgt id='1166'> +5.9150245e+01 </wgt>
<wgt id='1167'> +5.9000238e+01 </wgt>
<wgt id='1168'> +6.0874434e+01 </wgt>
<wgt id='1169'> +6.0197837e+01 </wgt>
<wgt id='1170'> +5.8582869e+01 </wgt>
<wgt id='1171'> +6.0230296e+01 </wgt>
<wgt id='1172'> +6.0367979e+01 </wgt>
<wgt id='1173'> +6.0359926e+01 </wgt>
<wgt id='1174'> +5.7714299e+01 </wgt>
<wgt id='1175'> +6.3056636e+01 </wgt>
<wgt id='1176'> +6.0440953e+01 </wgt>
<wgt id='1177'> +5.9776218e+01 </wgt>
<wgt id='1178'> +6.3343937e+01 </wgt>
<wgt id='1179'> +6.0515157e+01 </wgt>
<wgt id='1180'> +6.1513170e+01 </wgt>
<wgt id='1181'> +6.3821433e+01 </wgt>
<wgt id='1182'> +6.0724984e+01 </wgt>
<wgt id='1183'> +6.0436875e+01 </wgt>
<wgt id='1184'> +6.1690548e+01 </wgt>
<wgt id='1185'> +6.2604480e+01 </wgt>
<wgt id='1186'> +5.7266153e+01 </wgt>
<wgt id='1187'> +6.3227546e+01 </wgt>
<wgt id='1188'> +6.0229738e+01 </wgt>
<wgt id='1189'> +6.4144090e+01 </wgt>
<wgt id='1190'> +6.3353991e+01 </wgt>
<wgt id='1191'> +6.2137820e+01 </wgt>
<wgt id='1192'> +6.0891662e+01 </wgt>
<wgt id='1193'> +6.3712555e+01 </wgt>
<wgt id='1194'> +6.1820455e+01 </wgt>
<wgt id='1195'> +6.0752738e+01 </wgt>
<wgt id='1196'> +5.8239362e+01 </wgt>
<wgt id='1197'> +6.4189953e+01 </wgt>
<wgt id='1198'> +6.0379106e+01 </wgt>
<wgt id='1199'> +6.3325449e+01 </wgt>
<wgt id='1200'> +5.9973051e+01 </wgt>
<wgt id='1201'> +6.1000060e+01 </wgt>
<wgt id='1202'> +6.2136443e+01 </wgt>
<wgt id='1203'> +6.2677670e+01 </wgt>
<wgt id='1204'> +6.0186680e+01 </wgt>
<wgt id='1205'> +6.2150324e+01 </wgt>
<wgt id='1206'> +5.9893026e+01 </wgt>
<wgt id='1207'> +6.3060514e+01 </wgt>
<wgt id='1208'> +6.0166078e+01 </wgt>
<wgt id='1209'> +6.4791495e+01 </wgt>
<wgt id='1210'> +6.0229278e+01 </wgt>
<wgt id='1211'> +6.0999578e+01 </wgt>
<wgt id='1212'> +6.0277717e+01 </wgt>
<wgt id='1213'> +6.1254728e+01 </wgt>
<wgt id='1214'> +6.0870155e+01 </wgt>
<wgt id='1215'> +5.9999736e+01 </wgt>
<wgt id='1216'> +6.0519364e+01 </wgt>
<wgt id='1217'> +6.2869435e+01 </wgt>
<wgt id='1218'> +5.8788171e+01 </wgt>
<wgt id='1219'> +6.2739616e+01 </wgt>
<wgt id='1220'> +6.0267561e+01 </wgt>
<wgt id='1221'> +6.1338695e+01 </wgt>
<wgt id='1222'> +6.0435863e+01 </wgt>
<wgt id='1223'> +5.8947805e+01 </wgt>
<wgt id='1224'> +6.0384873e+01 </wgt>
<wgt id='1225'> +5.9376361e+01 </wgt>
<wgt id='1226'> +6.0345966e+01 </wgt>
<wgt id='1227'> +6.0771762e+01 </wgt>
<wgt id='1228'> +6.2071488e+01 </wgt>
<wgt id='1229'> +5.6690511e+01 </wgt>
<wgt id='1230'> +5.9809005e+01 </wgt>
<wgt id='1231'> +6.3447473e+01 </wgt>
<wgt id='1232'> +6.1508369e+01 </wgt>
<wgt id='1233'> +5.9000238e+01 </wgt>
<wgt id='1234'> +6.3005029e+01 </wgt>
<wgt id='1235'> +6.0618494e+01 </wgt>
<wgt id='1236'> +6.1049644e+01 </wgt>
<wgt id='1237'> +6.5731359e+01 </wgt>
<wgt id='1238'> +6.1985738e+01 </wgt>
<wgt id='1239'> +6.3402676e+01 </wgt>
<wgt id='1240'> +6.6901444e+01 </wgt>
<wgt id='1241'> +6.2172618e+01 </wgt>
<wgt id='1242'> +5.8794012e+01 </wgt>
<wgt id='1243'> +6.3629807e+01 </wgt>
<wgt id='1244'> +6.1658311e+01 </wgt>
<wgt id='1245'> +5.9899473e+01 </wgt>
<wgt id='1246'> +6.2093288e+01 </wgt>
<wgt id='1247'> +5.6005494e+01 </wgt>
<wgt id='1248'> +6.5261726e+01 </wgt>
<wgt id='1249'> +6.0719564e+01 </wgt>
<wgt id='1250'> +6.0110542e+01 </wgt>
<wgt id='1251'> +6.0020003e+01 </wgt>
<wgt id='1252'> +6.1189239e+01 </wgt>
<wgt id='1253'> +6.1125646e+01 </wgt>
<wgt id='1254'> +6.1184279e+01 </wgt>
<wgt id='1255'> +6.1152434e+01 </wgt>
<wgt id='1256'> +6.1437157e+01 </wgt>
<wgt id='1257'> +6.1220020e+01 </wgt>
<wgt id='1258'> +6.1062267e+01 </wgt>
<wgt id='1259'> +6.1273835e+01 </wgt>
<wgt id='1260'> +6.1035778e+01 </wgt>
<wgt id='1261'> +6.1371724e+01 </wgt>
<wgt id='1262'> +6.1080846e+01 </wgt>
<wgt id='1263'> +6.0991833e+01 </wgt>
<wgt id='1264'> +6.1027847e+01 </wgt>
<wgt id='1265'> +6.0755160e+01 </wgt>
<wgt id='1266'> +6.0920458e+01 </wgt>
<wgt id='1267'> +6.1041755e+01 </wgt>
<wgt id='1268'> +6.1274915e+01 </wgt>
<wgt id='1269'> +6.1105919e+01 </wgt>
<wgt id='1270'> +6.1016267e+01 </wgt>
<wgt id='1271'> +6.1198051e+01 </wgt>
<wgt id='1272'> +6.0949801e+01 </wgt>
<wgt id='1273'> +6.1399932e+01 </wgt>
<wgt id='1274'> +6.1052442e+01 </wgt>
<wgt id='1275'> +6.1376833e+01 </wgt>
<wgt id='1276'> +6.0891549e+01 </wgt>
<wgt id='1277'> +6.1151298e+01 </wgt>
<wgt id='1278'> +6.1584959e+01 </wgt>
<wgt id='1279'> +6.0998963e+01 </wgt>
<wgt id='1280'> +6.0890682e+01 </wgt>
<wgt id='1281'> +6.1973003e+01 </wgt>
<wgt id='1282'> +6.1162310e+01 </wgt>
<wgt id='1283'> +6.1186336e+01 </wgt>
<wgt id='1284'> +6.1137670e+01 </wgt>
<wgt id='1285'> +6.1089842e+01 </wgt>
<wgt id='1286'> +6.1481598e+01 </wgt>
<wgt id='1287'> +6.1347172e+01 </wgt>
<wgt id='1288'> +6.1160925e+01 </wgt>
<wgt id='1289'> +6.1499554e+01 </wgt>
<wgt id='1290'> +6.1292090e+01 </wgt>
<wgt id='1291'> +6.0668550e+01 </wgt>
<wgt id='1292'> +6.0842808e+01 </wgt>
<wgt id='1293'> +6.1029974e+01 </wgt>
<wgt id='1294'> +6.1652571e+01 </wgt>
<wgt id='1295'> +6.1073908e+01 </wgt>
<wgt id='1296'> +6.1307881e+01 </wgt>
<wgt id='1297'> +6.1250407e+01 </wgt>
<wgt id='1298'> +6.1340297e+01 </wgt>
<wgt id='1299'> +6.1097143e+01 </wgt>
<wgt id='1300'> +6.1111104e+01 </wgt>
<wgt id='1301'> +6.1125597e+01 </wgt>
<wgt id='1302'> +6.1037776e+01 </wgt>
<wgt id='1303'> +6.0574108e+01 </wgt>
<wgt id='1304'> +6.0846144e+01 </wgt>
<wgt id='1305'> +6.1090628e+01 </wgt>
<wgt id='1306'> +6.1152724e+01 </wgt>
<wgt id='1307'> +6.1154464e+01 </wgt>
<wgt id='1308'> +6.1067140e+01 </wgt>
<wgt id='1309'> +6.0757745e+01 </wgt>
<wgt id='1310'> +6.1186310e+01 </wgt>
<wgt id='1311'> +6.1134733e+01 </wgt>
<wgt id='1312'> +6.1202487e+01 </wgt>
<wgt id='1313'> +6.1025662e+01 </wgt>
<wgt id='1314'> +6.0721548e+01 </wgt>
<wgt id='1315'> +6.1532387e+01 </wgt>
<wgt id='1316'> +6.1271348e+01 </wgt>
<wgt id='1317'> +6.1348335e+01 </wgt>
<wgt id='1318'> +6.1532633e+01 </wgt>
<wgt id='1319'> +6.1110117e+01 </wgt>
<wgt id='1320'> +6.1114050e+01 </wgt>
<wgt id='1321'> +6.1386739e+01 </wgt>
<wgt id='1322'> +6.0725024e+01 </wgt>
<wgt id='1323'> +6.1216132e+01 </wgt>
<wgt id='1324'> +6.1238486e+01 </wgt>
<wgt id='1325'> +6.0881674e+01 </wgt>
<wgt id='1326'> +6.1115290e+01 </wgt>
<wgt id='1327'> +6.1018143e+01 </wgt>
<wgt id='1328'> +6.1324953e+01 </wgt>
<wgt id='1329'> +6.0750152e+01 </wgt>
<wgt id='1330'> +6.1283108e+01 </wgt>
<wgt id='1331'> +6.1222319e+01 </wgt>
<wgt id='1332'> +6.1384783e+01 </wgt>
<wgt id='1333'> +6.1262736e+01 </wgt>
<wgt id='1334'> +6.1307628e+01 </wgt>
<wgt id='1335'> +6.1288953e+01 </wgt>
<wgt id='1336'> +6.1114407e+01 </wgt>
<wgt id='1337'> +6.1397198e+01 </wgt>
<wgt id='1338'> +6.1255564e+01 </wgt>
<wgt id='1339'> +6.1018870e+01 </wgt>
<wgt id='1340'> +6.1192320e+01 </wgt>
<wgt id='1341'> +6.0995306e+01 </wgt>
<wgt id='1342'> +6.1381541e+01 </wgt>
<wgt id='1343'> +6.1231684e+01 </wgt>
<wgt id='1344'> +6.1169907e+01 </wgt>
<wgt id='1345'> +6.1356436e+01 </wgt>
<wgt id='1346'> +6.1077464e+01 </wgt>
<wgt id='1347'> +6.1242955e+01 </wgt>
<wgt id='1348'> +6.1088283e+01 </wgt>
<wgt id='1349'> +6.1442949e+01 </wgt>
<wgt id='1350'> +6.1089661e+01 </wgt>
<wgt id='1351'> +6.1327649e+01 </wgt>
<wgt id='1352'> +6.1133847e+01 </wgt>
<wgt id='1353'> +5.9359967e+01 </wgt>
<wgt id='1354'> +6.3708028e+01 </wgt>
<wgt id='1355'> +5.2456277e+01 </wgt>
<wgt id='1356'> +5.4338546e+01 </wgt>
<wgt id='1357'> +5.5552985e+01 </wgt>
<wgt id='1358'> +5.7095249e+01 </wgt>
<wgt id='1359'> +6.0192819e+01 </wgt>
<wgt id='1360'> +6.2222646e+01 </wgt>
<wgt id='1361'> +6.5482720e+01 </wgt>
<wgt id='1362'> +6.7782216e+01 </wgt>
<wgt id='1363'> +6.5708486e+01 </wgt>
<wgt id='1364'> +6.5709574e+01 </wgt>
<wgt id='1365'> +6.5493072e+01 </wgt>
<wgt id='1366'> +6.5690844e+01 </wgt>
<wgt id='1367'> +6.6009697e+01 </wgt>
<wgt id='1368'> +6.5708406e+01 </wgt>
<wgt id='1369'> +6.5673677e+01 </wgt>
<wgt id='1370'> +6.5833774e+01 </wgt>
<wgt id='1371'> +6.5752039e+01 </wgt>
<wgt id='1372'> +6.5865618e+01 </wgt>
<wgt id='1373'> +6.5707974e+01 </wgt>
<wgt id='1374'> +6.5515554e+01 </wgt>
<wgt id='1375'> +6.5633864e+01 </wgt>
<wgt id='1376'> +6.5955122e+01 </wgt>
<wgt id='1377'> +6.5620738e+01 </wgt>
<wgt id='1378'> +6.5560815e+01 </wgt>
<wgt id='1379'> +6.5557226e+01 </wgt>
<wgt id='1380'> +6.5550865e+01 </wgt>
<wgt id='1381'> +6.5866351e+01 </wgt>
<wgt id='1382'> +6.6102877e+01 </wgt>
<wgt id='1383'> +6.6030776e+01 </wgt>
<wgt id='1384'> +6.5847816e+01 </wgt>
<wgt id='1385'> +6.5762294e+01 </wgt>
<wgt id='1386'> +6.5800183e+01 </wgt>
<wgt id='1387'> +6.5659394e+01 </wgt>
<wgt id='1388'> +6.5950083e+01 </wgt>
<wgt id='1389'> +6.5754697e+01 </wgt>
<wgt id='1390'> +6.5753168e+01 </wgt>
<wgt id='1391'> +6.5538867e+01 </wgt>
<wgt id='1392'> +6.5063609e+01 </wgt>
<wgt id='1393'> +6.6486152e+01 </wgt>
<wgt id='1394'> +6.6057396e+01 </wgt>
<wgt id='1395'> +6.5843062e+01 </wgt>
<wgt id='1396'> +6.5971834e+01 </wgt>
<wgt id='1397'> +6.5599520e+01 </wgt>
<wgt id='1398'> +6.6461959e+01 </wgt>
<wgt id='1399'> +6.5786000e+01 </wgt>
<wgt id='1400'> +6.5651217e+01 </wgt>
<wgt id='1401'> +6.5779640e+01 </wgt>
<wgt id='1402'> +6.5874294e+01 </wgt>
<wgt id='1403'> +6.5438324e+01 </wgt>
<wgt id='1404'> +6.5643309e+01 </wgt>
<wgt id='1405'> +6.5716347e+01 </wgt>
<wgt id='1406'> +6.5937669e+01 </wgt>
<wgt id='1407'> +6.5576149e+01 </wgt>
<wgt id='1408'> +6.5709876e+01 </wgt>
<wgt id='1409'> +6.5427209e+01 </wgt>
<wgt id='1410'> +6.5788187e+01 </wgt>
<wgt id='1411'> +6.5428761e+01 </wgt>
<wgt id='1412'> +6.5675971e+01 </wgt>
<wgt id='1413'> +6.6074445e+01 </wgt>
<wgt id='1414'> +6.5551282e+01 </wgt>
<wgt id='1415'> +6.5736951e+01 </wgt>
<wgt id='1416'> +6.5573542e+01 </wgt>
<wgt id='1417'> +6.5614905e+01 </wgt>
<wgt id='1418'> +6.6158530e+01 </wgt>
<wgt id='1419'> +6.5321738e+01 </wgt>
<wgt id='1420'> +6.5402711e+01 </wgt>
<wgt id='1421'> +6.5921761e+01 </wgt>
<wgt id='1422'> +6.5383228e+01 </wgt>
<wgt id='1423'> +6.6113502e+01 </wgt>
<wgt id='1424'> +6.5292284e+01 </wgt>
<wgt id='1425'> +6.5838091e+01 </wgt>
<wgt id='1426'> +6.5155283e+01 </wgt>
<wgt id='1427'> +6.5928191e+01 </wgt>
<wgt id='1428'> +6.5304592e+01 </wgt>
<wgt id='1429'> +6.5876718e+01 </wgt>
<wgt id='1430'> +6.5425222e+01 </wgt>
<wgt id='1431'> +6.5769476e+01 </wgt>
<wgt id='1432'> +6.5551356e+01 </wgt>
<wgt id='1433'> +6.5707383e+01 </wgt>
<wgt id='1434'> +6.5687572e+01 </wgt>
<wgt id='1435'> +6.5639942e+01 </wgt>
<wgt id='1436'> +6.5737067e+01 </wgt>
<wgt id='1437'> +6.6032365e+01 </wgt>
<wgt id='1438'> +6.5777699e+01 </wgt>
<wgt id='1439'> +6.5938475e+01 </wgt>
<wgt id='1440'> +6.5891662e+01 </wgt>
<wgt id='1441'> +6.5727171e+01 </wgt>
<wgt id='1442'> +6.5290027e+01 </wgt>
<wgt id='1443'> +6.5602884e+01 </wgt>
<wgt id='1444'> +6.5571818e+01 </wgt>
<wgt id='1445'> +6.5489992e+01 </wgt>
<wgt id='1446'> +6.5495099e+01 </wgt>
<wgt id='1447'> +6.5451591e+01 </wgt>
<wgt id='1448'> +6.5945299e+01 </wgt>
<wgt id='1449'> +6.5502109e+01 </wgt>
<wgt id='1450'> +6.5330953e+01 </wgt>
<wgt id='1451'> +6.5485150e+01 </wgt>
<wgt id='1452'> +6.5625297e+01 </wgt>
<wgt id='1453'> +6.5731821e+01 </wgt>
<wgt id='1454'> +6.5567772e+01 </wgt>
<wgt id='1455'> +6.5748819e+01 </wgt>
<wgt id='1456'> +6.5802822e+01 </wgt>
<wgt id='1457'> +6.5837311e+01 </wgt>
<wgt id='1458'> +6.5804242e+01 </wgt>
<wgt id='1459'> +6.5641733e+01 </wgt>
<wgt id='1460'> +6.5714538e+01 </wgt>
<wgt id='1461'> +6.5713749e+01 </wgt>
<wgt id='1462'> +6.5773177e+01 </wgt>
<wgt id='1463'> +6.5836307e+01 </wgt>
<wgt id='1464'> +6.3811599e+01 </wgt>
<wgt id='1465'> +6.7427488e+01 </wgt>
<wgt id='1466'> +6.9822984e+01 </wgt>
<wgt id='1467'> +7.0614035e+01 </wgt>
<wgt id='1468'> +6.9823276e+01 </wgt>
<wgt id='1469'> +7.0451237e+01 </wgt>
<wgt id='1470'> +6.9910618e+01 </wgt>
<wgt id='1471'> +7.3967581e+01 </wgt>
<wgt id='1472'> +7.1908523e+01 </wgt>
<wgt id='1473'> +7.0851231e+01 </wgt>
<wgt id='1474'> +7.1300362e+01 </wgt>
<wgt id='1475'> +7.0744880e+01 </wgt>
<wgt id='1476'> +6.9600014e+01 </wgt>
<wgt id='1477'> +7.1776807e+01 </wgt>
<wgt id='1478'> +6.7947703e+01 </wgt>
<wgt id='1479'> +6.7862246e+01 </wgt>
<wgt id='1480'> +7.1384424e+01 </wgt>
<wgt id='1481'> +6.7451937e+01 </wgt>
<wgt id='1482'> +7.6851087e+01 </wgt>
<wgt id='1483'> +6.9511936e+01 </wgt>
<wgt id='1484'> +7.0091275e+01 </wgt>
<wgt id='1485'> +6.8070654e+01 </wgt>
<wgt id='1486'> +7.1306837e+01 </wgt>
<wgt id='1487'> +6.8538374e+01 </wgt>
<wgt id='1488'> +7.0651714e+01 </wgt>
<wgt id='1489'> +6.8858844e+01 </wgt>
<wgt id='1490'> +7.0993559e+01 </wgt>
<wgt id='1491'> +6.9902530e+01 </wgt>
<wgt id='1492'> +6.9760723e+01 </wgt>
<wgt id='1493'> +6.8271142e+01 </wgt>
<wgt id='1494'> +7.2547911e+01 </wgt>
<wgt id='1495'> +7.3758940e+01 </wgt>
<wgt id='1496'> +6.7504414e+01 </wgt>
<wgt id='1497'> +7.1861895e+01 </wgt>
<wgt id='1498'> +6.7000027e+01 </wgt>
<wgt id='1499'> +6.9064028e+01 </wgt>
<wgt id='1500'> +7.0573323e+01 </wgt>
<wgt id='1501'> +6.8661220e+01 </wgt>
<wgt id='1502'> +7.0782971e+01 </wgt>
<wgt id='1503'> +6.8155694e+01 </wgt>
<wgt id='1504'> +7.1803079e+01 </wgt>
<wgt id='1505'> +7.0101432e+01 </wgt>
<wgt id='1506'> +6.9702036e+01 </wgt>
<wgt id='1507'> +7.4209876e+01 </wgt>
<wgt id='1508'> +6.8278035e+01 </wgt>
<wgt id='1509'> +6.3966476e+01 </wgt>
<wgt id='1510'> +7.6642364e+01 </wgt>
<wgt id='1511'> +6.9653801e+01 </wgt>
<wgt id='1512'> +7.1277729e+01 </wgt>
<wgt id='1513'> +7.1546721e+01 </wgt>
<wgt id='1514'> +6.7941800e+01 </wgt>
<wgt id='1515'> +7.0386584e+01 </wgt>
<wgt id='1516'> +6.8266976e+01 </wgt>
<wgt id='1517'> +6.9017531e+01 </wgt>
<wgt id='1518'> +7.0367722e+01 </wgt>
<wgt id='1519'> +6.3599989e+01 </wgt>
<wgt id='1520'> +6.4750287e+01 </wgt>
<wgt id='1521'> +6.9430256e+01 </wgt>
<wgt id='1522'> +7.1249241e+01 </wgt>
<wgt id='1523'> +6.6460331e+01 </wgt>
<wgt id='1524'> +7.3997653e+01 </wgt>
<wgt id='1525'> +6.8890779e+01 </wgt>
<wgt id='1526'> +6.8916989e+01 </wgt>
<wgt id='1527'> +6.8037269e+01 </wgt>
<wgt id='1528'> +6.9422692e+01 </wgt>
<wgt id='1529'> +7.0303128e+01 </wgt>
<wgt id='1530'> +6.6105923e+01 </wgt>
<wgt id='1531'> +7.0640921e+01 </wgt>
<wgt id='1532'> +6.9144689e+01 </wgt>
<wgt id='1533'> +6.8765538e+01 </wgt>
<wgt id='1534'> +7.3731300e+01 </wgt>
<wgt id='1535'> +6.3714360e+01 </wgt>
<wgt id='1536'> +6.8730956e+01 </wgt>
<wgt id='1537'> +6.8942137e+01 </wgt>
<wgt id='1538'> +7.6554220e+01 </wgt>
<wgt id='1539'> +6.4382718e+01 </wgt>
<wgt id='1540'> +7.1197648e+01 </wgt>
<wgt id='1541'> +6.7451310e+01 </wgt>
<wgt id='1542'> +6.7764426e+01 </wgt>
<wgt id='1543'> +7.0258246e+01 </wgt>
<wgt id='1544'> +6.5250960e+01 </wgt>
<wgt id='1545'> +7.2984746e+01 </wgt>
<wgt id='1546'> +6.7939734e+01 </wgt>
<wgt id='1547'> +7.0859010e+01 </wgt>
<wgt id='1548'> +7.1461442e+01 </wgt>
<wgt id='1549'> +6.6474595e+01 </wgt>
<wgt id='1550'> +6.8405775e+01 </wgt>
<wgt id='1551'> +6.9338514e+01 </wgt>
<wgt id='1552'> +6.9931822e+01 </wgt>
<wgt id='1553'> +6.7442625e+01 </wgt>
<wgt id='1554'> +6.9988224e+01 </wgt>
<wgt id='1555'> +6.8505829e+01 </wgt>
<wgt id='1556'> +6.8555396e+01 </wgt>
<wgt id='1557'> +6.9333834e+01 </wgt>
<wgt id='1558'> +6.9487030e+01 </wgt>
<wgt id='1559'> +6.7597407e+01 </wgt>
<wgt id='1560'> +6.7470287e+01 </wgt>
<wgt id='1561'> +7.0050162e+01 </wgt>
<wgt id='1562'> +6.5964902e+01 </wgt>
<wgt id='1563'> +7.3509084e+01 </wgt>
<wgt id='1564'> +6.7437595e+01 </wgt>
<wgt id='1565'> +7.0286705e+01 </wgt>
<wgt id='1566'> +7.0585760e+01 </wgt>
<wgt id='1567'> +6.6825274e+01 </wgt>
<wgt id='1568'> +7.1369989e+01 </wgt>
<wgt id='1569'> +6.6060855e+01 </wgt>
<wgt id='1570'> +6.9327829e+01 </wgt>
<wgt id='1571'> +6.9633765e+01 </wgt>
<wgt id='1572'> +7.0155418e+01 </wgt>
<wgt id='1573'> +7.1044009e+01 </wgt>
<wgt id='1574'> +7.0589556e+01 </wgt>
<wgt id='1575'> +7.2482705e+01 </wgt>
<wgt id='1576'> +6.9056092e+01 </wgt>
<wgt id='1577'> +6.9404957e+01 </wgt>
<wgt id='1578'> +6.4785704e+01 </wgt>
<wgt id='1579'> +6.9784762e+01 </wgt>
<wgt id='1580'> +6.8389834e+01 </wgt>
<wgt id='1581'> +6.9911887e+01 </wgt>
<wgt id='1582'> +6.6251403e+01 </wgt>
<wgt id='1583'> +7.2368636e+01 </wgt>
<wgt id='1584'> +9.0266680e+01 </wgt>
<wgt id='1585'> +6.4911059e+01 </wgt>
<wgt id='1586'> +6.4959382e+01 </wgt>
<wgt id='1587'> +6.4855395e+01 </wgt>
<wgt id='1588'> +6.4936318e+01 </wgt>
<wgt id='1589'> +6.4890608e+01 </wgt>
<wgt id='1590'> +6.5231067e+01 </wgt>
<wgt id='1591'> +6.4610278e+01 </wgt>
<wgt id='1592'> +6.4817730e+01 </wgt>
<wgt id='1593'> +6.5011766e+01 </wgt>
<wgt id='1594'> +6.5016807e+01 </wgt>
<wgt id='1595'> +6.4799991e+01 </wgt>
<wgt id='1596'> +6.4946306e+01 </wgt>
<wgt id='1597'> +6.4828287e+01 </wgt>
<wgt id='1598'> +6.4892758e+01 </wgt>
<wgt id='1599'> +6.4938593e+01 </wgt>
<wgt id='1600'> +6.4919966e+01 </wgt>
<wgt id='1601'> +6.4901794e+01 </wgt>
<wgt id='1602'> +6.4551954e+01 </wgt>
<wgt id='1603'> +6.5328134e+01 </wgt>
<wgt id='1604'> +6.4882479e+01 </wgt>
<wgt id='1605'> +6.4931293e+01 </wgt>
<wgt id='1606'> +6.4612303e+01 </wgt>
<wgt id='1607'> +6.5296039e+01 </wgt>
<wgt id='1608'> +6.4381445e+01 </wgt>
<wgt id='1609'> +6.5249398e+01 </wgt>
<wgt id='1610'> +6.5978563e+01 </wgt>
<wgt id='1611'> +6.3809119e+01 </wgt>
<wgt id='1612'> +6.4857819e+01 </wgt>
<wgt id='1613'> +6.4954381e+01 </wgt>
<wgt id='1614'> +6.3816870e+01 </wgt>
<wgt id='1615'> +6.6271235e+01 </wgt>
<wgt id='1616'> +6.2962840e+01 </wgt>
<wgt id='1617'> +6.7269177e+01 </wgt>
<wgt id='1618'> +6.5655501e+01 </wgt>
<wgt id='1619'> +6.4205160e+01 </wgt>
<wgt id='1620'> +6.5283467e+01 </wgt>
<wgt id='1621'> +6.4092396e+01 </wgt>
<wgt id='1622'> +6.4863127e+01 </wgt>
<wgt id='1623'> +6.4830413e+01 </wgt>
<wgt id='1624'> +6.4467628e+01 </wgt>
<wgt id='1625'> +6.5416463e+01 </wgt>
<wgt id='1626'> +6.3783506e+01 </wgt>
<wgt id='1627'> +6.6213149e+01 </wgt>
<wgt id='1628'> +6.5209191e+01 </wgt>
<wgt id='1629'> +6.4972231e+01 </wgt>
<wgt id='1630'> +6.4677529e+01 </wgt>
<wgt id='1631'> +6.5497215e+01 </wgt>
<wgt id='1632'> +6.3320352e+01 </wgt>
<wgt id='1633'> +6.7649822e+01 </wgt>
<wgt id='1634'> +6.3827390e+01 </wgt>
<wgt id='1635'> +6.5507504e+01 </wgt>
<wgt id='1636'> +7.0783363e+01 </wgt>
<wgt id='1637'> +7.0776761e+01 </wgt>
<wgt id='1638'> +7.0789140e+01 </wgt>
<wgt id='1639'> +7.1055370e+01 </wgt>
<wgt id='1640'> +7.0513593e+01 </wgt>
<wgt id='1641'> +7.0935300e+01 </wgt>
<wgt id='1642'> +7.0724850e+01 </wgt>
<wgt id='1643'> +7.0803264e+01 </wgt>
<wgt id='1644'> +7.0765180e+01 </wgt>
<wgt id='1645'> +7.0888124e+01 </wgt>
<wgt id='1646'> +7.0684486e+01 </wgt>
<wgt id='1647'> +7.0492462e+01 </wgt>
<wgt id='1648'> +7.0911445e+01 </wgt>
<wgt id='1649'> +7.0749769e+01 </wgt>
<wgt id='1650'> +7.0826603e+01 </wgt>
<wgt id='1651'> +7.0743950e+01 </wgt>
<wgt id='1652'> +7.0827936e+01 </wgt>
<wgt id='1653'> +7.0131558e+01 </wgt>
<wgt id='1654'> +7.1147582e+01 </wgt>
<wgt id='1655'> +7.0740773e+01 </wgt>
<wgt id='1656'> +7.0840601e+01 </wgt>
<wgt id='1657'> +7.0919902e+01 </wgt>
<wgt id='1658'> +7.0687782e+01 </wgt>
<wgt id='1659'> +7.0985235e+01 </wgt>
<wgt id='1660'> +7.0574492e+01 </wgt>
<wgt id='1661'> +7.0859679e+01 </wgt>
<wgt id='1662'> +7.0587618e+01 </wgt>
<wgt id='1663'> +7.0508956e+01 </wgt>
<wgt id='1664'> +7.1030168e+01 </wgt>
<wgt id='1665'> +7.2168742e+01 </wgt>
<wgt id='1666'> +6.7401806e+01 </wgt>
<wgt id='1667'> +6.9660715e+01 </wgt>
<wgt id='1668'> +7.3271516e+01 </wgt>
<wgt id='1669'> +7.1303925e+01 </wgt>
<wgt id='1670'> +6.9864361e+01 </wgt>
<wgt id='1671'> +6.9050520e+01 </wgt>
<wgt id='1672'> +7.1653823e+01 </wgt>
<wgt id='1673'> +7.0694422e+01 </wgt>
<wgt id='1674'> +7.0988001e+01 </wgt>
<wgt id='1675'> +7.0024089e+01 </wgt>
<wgt id='1676'> +7.1365446e+01 </wgt>
<wgt id='1677'> +7.2601124e+01 </wgt>
<wgt id='1678'> +6.8189632e+01 </wgt>
<wgt id='1679'> +7.0925660e+01 </wgt>
<wgt id='1680'> +7.0007515e+01 </wgt>
<wgt id='1681'> +7.2158754e+01 </wgt>
<wgt id='1682'> +6.9698409e+01 </wgt>
<wgt id='1683'> +7.0269970e+01 </wgt>
<wgt id='1684'> +7.1004063e+01 </wgt>
<wgt id='1685'> +7.2620512e+01 </wgt>
<wgt id='1686'> +6.9407642e+01 </wgt>
<wgt id='1687'> +9.4591750e+01 </wgt>
<wgt id='1688'> +5.7987436e+01 </wgt>
<wgt id='1689'> +5.7985197e+01 </wgt>
<wgt id='1690'> +5.8003057e+01 </wgt>
<wgt id='1691'> +5.7984738e+01 </wgt>
<wgt id='1692'> +5.7985642e+01 </wgt>
<wgt id='1693'> +5.7881020e+01 </wgt>
<wgt id='1694'> +5.8064611e+01 </wgt>
<wgt id='1695'> +5.8100044e+01 </wgt>
<wgt id='1696'> +5.8066619e+01 </wgt>
<wgt id='1697'> +5.8178764e+01 </wgt>
<wgt id='1698'> +5.7923113e+01 </wgt>
<wgt id='1699'> +5.8053884e+01 </wgt>
<wgt id='1700'> +5.7833112e+01 </wgt>
<wgt id='1701'> +5.7890956e+01 </wgt>
<wgt id='1702'> +5.8119034e+01 </wgt>
<wgt id='1703'> +5.7944391e+01 </wgt>
<wgt id='1704'> +5.8153525e+01 </wgt>
<wgt id='1705'> +5.8193027e+01 </wgt>
<wgt id='1706'> +5.8336039e+01 </wgt>
<wgt id='1707'> +5.7521403e+01 </wgt>
<wgt id='1708'> +5.8754816e+01 </wgt>
<wgt id='1709'> +5.7740591e+01 </wgt>
<wgt id='1710'> +5.9357557e+01 </wgt>
<wgt id='1711'> +5.7472829e+01 </wgt>
<wgt id='1712'> +5.7086124e+01 </wgt>
<wgt id='1713'> +5.7044882e+01 </wgt>
<wgt id='1714'> +5.7792976e+01 </wgt>
<wgt id='1715'> +5.8259319e+01 </wgt>
<wgt id='1716'> +5.7976773e+01 </wgt>
<wgt id='1717'> +6.2238309e+01 </wgt>
<wgt id='1718'> +6.7653854e+01 </wgt>
<wgt id='1719'> +6.6271219e+01 </wgt>
<wgt id='1720'> +6.7459396e+01 </wgt>
<wgt id='1721'> +6.7883034e+01 </wgt>
<wgt id='1722'> +6.7173895e+01 </wgt>
<wgt id='1723'> +6.8023060e+01 </wgt>
<wgt id='1724'> +6.7695155e+01 </wgt>
<wgt id='1725'> +6.7266678e+01 </wgt>
<wgt id='1726'> +6.5864129e+01 </wgt>
<wgt id='1727'> +6.8188728e+01 </wgt>
<wgt id='1728'> +6.6815101e+01 </wgt>
<wgt id='1729'> +6.7065296e+01 </wgt>
<wgt id='1730'> +6.9171290e+01 </wgt>
<wgt id='1731'> +6.8812117e+01 </wgt>
<wgt id='1732'> +6.8058427e+01 </wgt>
<wgt id='1733'> +6.8036207e+01 </wgt>
<wgt id='1734'> +6.7169523e+01 </wgt>
<wgt id='1735'> +6.9080968e+01 </wgt>
<wgt id='1736'> +6.8633259e+01 </wgt>
<wgt id='1737'> +6.9272782e+01 </wgt>
<wgt id='1738'> +6.4567714e+01 </wgt>
<wgt id='1739'> +6.7941387e+01 </wgt>
<wgt id='1740'> +6.9466247e+01 </wgt>
<wgt id='1741'> +6.5902714e+01 </wgt>
<wgt id='1742'> +6.9163857e+01 </wgt>
<wgt id='1743'> +6.7525169e+01 </wgt>
<wgt id='1744'> +6.7540325e+01 </wgt>
<wgt id='1745'> +6.7898983e+01 </wgt>
<wgt id='1746'> +6.7278921e+01 </wgt>
<wgt id='1747'> +6.7425525e+01 </wgt>
<wgt id='1748'> +6.7511258e+01 </wgt>
<wgt id='1749'> +6.7573477e+01 </wgt>
<wgt id='1750'> +6.7481153e+01 </wgt>
<wgt id='1751'> +6.7306308e+01 </wgt>
<wgt id='1752'> +6.7573725e+01 </wgt>
<wgt id='1753'> +6.8037874e+01 </wgt>
<wgt id='1754'> +6.7338462e+01 </wgt>
<wgt id='1755'> +6.7614686e+01 </wgt>
<wgt id='1756'> +6.7734083e+01 </wgt>
<wgt id='1757'> +6.7539310e+01 </wgt>
<wgt id='1758'> +6.7883796e+01 </wgt>
<wgt id='1759'> +6.7630123e+01 </wgt>
<wgt id='1760'> +6.7377500e+01 </wgt>
<wgt id='1761'> +6.7360067e+01 </wgt>
<wgt id='1762'> +6.7768833e+01 </wgt>
<wgt id='1763'> +6.7761573e+01 </wgt>
<wgt id='1764'> +6.7896011e+01 </wgt>
<wgt id='1765'> +6.7509997e+01 </wgt>
<wgt id='1766'> +6.7409776e+01 </wgt>
<wgt id='1767'> +6.7752060e+01 </wgt>
<wgt id='1768'> +6.7627156e+01 </wgt>
<wgt id='1769'> +6.7757195e+01 </wgt>
<wgt id='1770'> +6.7534368e+01 </wgt>
<wgt id='1771'> +6.7479940e+01 </wgt>
<wgt id='1772'> +6.7614354e+01 </wgt>
<wgt id='1773'> +6.7624651e+01 </wgt>
<wgt id='1774'> +6.7588804e+01 </wgt>
<wgt id='1775'> +6.7732625e+01 </wgt>
<wgt id='1776'> +6.7698575e+01 </wgt>
<wgt id='1777'> +6.7665476e+01 </wgt>
<wgt id='1778'> +6.7585718e+01 </wgt>
<wgt id='1779'> +6.7767197e+01 </wgt>
<wgt id='1780'> +6.7682396e+01 </wgt>
<wgt id='1781'> +6.7656179e+01 </wgt>
<wgt id='1782'> +6.7662785e+01 </wgt>
<wgt id='1783'> +6.7726614e+01 </wgt>
<wgt id='1784'> +6.7814335e+01 </wgt>
<wgt id='1785'> +6.7698137e+01 </wgt>
<wgt id='1786'> +6.7714824e+01 </wgt>
<wgt id='1787'> +6.7674147e+01 </wgt>
<wgt id='1788'> +6.7624008e+01 </wgt>
<wgt id='1789'> +6.7516188e+01 </wgt>
<wgt id='1790'> +6.7601121e+01 </wgt>
<wgt id='1791'> +6.7568962e+01 </wgt>
<wgt id='1792'> +6.7631346e+01 </wgt>
<wgt id='1793'> +6.7573532e+01 </wgt>
<wgt id='1794'> +6.7704630e+01 </wgt>
<wgt id='1795'> +6.7557542e+01 </wgt>
<wgt id='1796'> +6.7723382e+01 </wgt>
<wgt id='1797'> +6.7781376e+01 </wgt>
<wgt id='1798'> +6.7566138e+01 </wgt>
<wgt id='1799'> +6.7683413e+01 </wgt>
<wgt id='1800'> +6.7582114e+01 </wgt>
<wgt id='1801'> +6.7660967e+01 </wgt>
<wgt id='1802'> +6.7766300e+01 </wgt>
<wgt id='1803'> +6.7683105e+01 </wgt>
<wgt id='1804'> +6.7838545e+01 </wgt>
<wgt id='1805'> +6.7677550e+01 </wgt>
<wgt id='1806'> +6.7650056e+01 </wgt>
<wgt id='1807'> +6.7664641e+01 </wgt>
<wgt id='1808'> +6.7628520e+01 </wgt>
<wgt id='1809'> +6.7566500e+01 </wgt>
<wgt id='1810'> +6.7652493e+01 </wgt>
<wgt id='1811'> +6.7588331e+01 </wgt>
<wgt id='1812'> +6.7621305e+01 </wgt>
<wgt id='1813'> +6.7629944e+01 </wgt>
<wgt id='1814'> +6.7622941e+01 </wgt>
<wgt id='1815'> +6.7700051e+01 </wgt>
<wgt id='1816'> +6.7696466e+01 </wgt>
<wgt id='1817'> +6.7695290e+01 </wgt>
<wgt id='1818'> +6.7660245e+01 </wgt>
<wgt id='1819'> +6.5897801e+01 </wgt>
<wgt id='1820'> +6.9955689e+01 </wgt>
<wgt id='1821'> +6.8797510e+01 </wgt>
<wgt id='1822'> +6.9497240e+01 </wgt>
<wgt id='1823'> +6.8569192e+01 </wgt>
<wgt id='1824'> +6.9608697e+01 </wgt>
<wgt id='1825'> +6.9339152e+01 </wgt>
<wgt id='1826'> +6.9439735e+01 </wgt>
<wgt id='1827'> +6.8854242e+01 </wgt>
<wgt id='1828'> +6.8391610e+01 </wgt>
<wgt id='1829'> +6.8108669e+01 </wgt>
<wgt id='1830'> +6.9123874e+01 </wgt>
<wgt id='1831'> +6.9197288e+01 </wgt>
<wgt id='1832'> +6.7624749e+01 </wgt>
<wgt id='1833'> +6.9826440e+01 </wgt>
<wgt id='1834'> +7.0566207e+01 </wgt>
<wgt id='1835'> +6.9811060e+01 </wgt>
<wgt id='1836'> +6.8549447e+01 </wgt>
<wgt id='1837'> +6.7665916e+01 </wgt>
<wgt id='1838'> +6.9077667e+01 </wgt>
<wgt id='1839'> +6.9328782e+01 </wgt>
<wgt id='1840'> +6.9638216e+01 </wgt>
<wgt id='1841'> +6.5703744e+01 </wgt>
<wgt id='1842'> +6.6921953e+01 </wgt>
<wgt id='1843'> +6.9911328e+01 </wgt>
<wgt id='1844'> +6.5684823e+01 </wgt>
<wgt id='1845'> +6.7772490e+01 </wgt>
<wgt id='1846'> +6.9591498e+01 </wgt>
<wgt id='1847'> +6.8059806e+01 </wgt>
<wgt id='1848'> +6.8998411e+01 </wgt>
<wgt id='1849'> +6.9453521e+01 </wgt>
<wgt id='1850'> +6.8918876e+01 </wgt>
<wgt id='1851'> +6.8602344e+01 </wgt>
<wgt id='1852'> +6.8617754e+01 </wgt>
<wgt id='1853'> +6.8923003e+01 </wgt>
<wgt id='1854'> +6.9026222e+01 </wgt>
<wgt id='1855'> +6.9070342e+01 </wgt>
<wgt id='1856'> +6.9001455e+01 </wgt>
<wgt id='1857'> +6.8886185e+01 </wgt>
<wgt id='1858'> +6.8869966e+01 </wgt>
<wgt id='1859'> +6.8986987e+01 </wgt>
<wgt id='1860'> +6.8808940e+01 </wgt>
<wgt id='1861'> +6.8588780e+01 </wgt>
<wgt id='1862'> +6.8841579e+01 </wgt>
<wgt id='1863'> +6.9035811e+01 </wgt>
<wgt id='1864'> +6.8457919e+01 </wgt>
<wgt id='1865'> +6.9050038e+01 </wgt>
<wgt id='1866'> +6.8784378e+01 </wgt>
<wgt id='1867'> +6.8605779e+01 </wgt>
<wgt id='1868'> +6.8865163e+01 </wgt>
<wgt id='1869'> +6.8773300e+01 </wgt>
<wgt id='1870'> +6.8709568e+01 </wgt>
<wgt id='1871'> +6.8793971e+01 </wgt>
<wgt id='1872'> +6.8946794e+01 </wgt>
<wgt id='1873'> +6.8940479e+01 </wgt>
<wgt id='1874'> +6.8883145e+01 </wgt>
<wgt id='1875'> +6.8730536e+01 </wgt>
<wgt id='1876'> +6.8742966e+01 </wgt>
<wgt id='1877'> +6.8788634e+01 </wgt>
<wgt id='1878'> +6.8771218e+01 </wgt>
<wgt id='1879'> +6.8693508e+01 </wgt>
<wgt id='1880'> +6.8731344e+01 </wgt>
<wgt id='1881'> +6.8823292e+01 </wgt>
<wgt id='1882'> +6.8739674e+01 </wgt>
<wgt id='1883'> +6.8839063e+01 </wgt>
<wgt id='1884'> +6.8794775e+01 </wgt>
<wgt id='1885'> +6.8915127e+01 </wgt>
<wgt id='1886'> +6.8716545e+01 </wgt>
<wgt id='1887'> +6.8716304e+01 </wgt>
<wgt id='1888'> +6.8708811e+01 </wgt>
<wgt id='1889'> +6.8824605e+01 </wgt>
<wgt id='1890'> +6.8889675e+01 </wgt>
<wgt id='1891'> +6.8794047e+01 </wgt>
<wgt id='1892'> +6.8810303e+01 </wgt>
<wgt id='1893'> +6.8808330e+01 </wgt>
<wgt id='1894'> +6.8785062e+01 </wgt>
<wgt id='1895'> +6.8878934e+01 </wgt>
<wgt id='1896'> +6.8742250e+01 </wgt>
<wgt id='1897'> +6.8794368e+01 </wgt>
<wgt id='1898'> +6.8840119e+01 </wgt>
<wgt id='1899'> +6.8851830e+01 </wgt>
<wgt id='1900'> +6.8717989e+01 </wgt>
<wgt id='1901'> +6.8886011e+01 </wgt>
<wgt id='1902'> +6.8792796e+01 </wgt>
<wgt id='1903'> +6.8772623e+01 </wgt>
<wgt id='1904'> +6.8781751e+01 </wgt>
<wgt id='1905'> +6.8691904e+01 </wgt>
<wgt id='1906'> +6.8703829e+01 </wgt>
<wgt id='1907'> +6.8861223e+01 </wgt>
<wgt id='1908'> +6.8631951e+01 </wgt>
<wgt id='1909'> +6.8735500e+01 </wgt>
<wgt id='1910'> +6.8760404e+01 </wgt>
<wgt id='1911'> +6.8837658e+01 </wgt>
<wgt id='1912'> +6.8745521e+01 </wgt>
<wgt id='1913'> +6.8781827e+01 </wgt>
<wgt id='1914'> +6.8771341e+01 </wgt>
<wgt id='1915'> +6.8738303e+01 </wgt>
<wgt id='1916'> +6.8791469e+01 </wgt>
<wgt id='1917'> +6.8769270e+01 </wgt>
<wgt id='1918'> +6.8799155e+01 </wgt>
<wgt id='1919'> +6.8792734e+01 </wgt>
<wgt id='1920'> +6.8740790e+01 </wgt>
<wgt id='1921'> +6.8804117e+01 </wgt>
<wgt id='1922'> +6.6413518e+01 </wgt>
<wgt id='1923'> +7.1786044e+01 </wgt>
<wgt id='1924'> +6.7667018e+01 </wgt>
<wgt id='1925'> +6.6769947e+01 </wgt>
<wgt id='1926'> +6.5962098e+01 </wgt>
<wgt id='1927'> +6.7240762e+01 </wgt>
<wgt id='1928'> +6.6493319e+01 </wgt>
<wgt id='1929'> +6.5639550e+01 </wgt>
<wgt id='1930'> +6.5508742e+01 </wgt>
<wgt id='1931'> +6.7720315e+01 </wgt>
<wgt id='1932'> +6.6906561e+01 </wgt>
<wgt id='1933'> +6.7011729e+01 </wgt>
<wgt id='1934'> +6.7380082e+01 </wgt>
<wgt id='1935'> +6.6601014e+01 </wgt>
<wgt id='1936'> +6.6862799e+01 </wgt>
<wgt id='1937'> +6.7999381e+01 </wgt>
<wgt id='1938'> +6.7648085e+01 </wgt>
<wgt id='1939'> +6.7837557e+01 </wgt>
<wgt id='1940'> +6.7653958e+01 </wgt>
<wgt id='1941'> +6.8274730e+01 </wgt>
<wgt id='1942'> +6.8452757e+01 </wgt>
<wgt id='1943'> +6.6673398e+01 </wgt>
<wgt id='1944'> +6.7854832e+01 </wgt>
<wgt id='1945'> +6.7256478e+01 </wgt>
<wgt id='1946'> +7.1484037e+01 </wgt>
<wgt id='1947'> +6.7709699e+01 </wgt>
<wgt id='1948'> +6.7564620e+01 </wgt>
<wgt id='1949'> +6.7563601e+01 </wgt>
<wgt id='1950'> +6.7456001e+01 </wgt>
<wgt id='1951'> +6.7524441e+01 </wgt>
<wgt id='1952'> +6.7215743e+01 </wgt>
<wgt id='1953'> +6.7793958e+01 </wgt>
<wgt id='1954'> +6.7714918e+01 </wgt>
<wgt id='1955'> +6.5897801e+01 </wgt>
<wgt id='1956'> +6.9955689e+01 </wgt>
<wgt id='1957'> +6.8806286e+01 </wgt>
<wgt id='1958'> +6.9097937e+01 </wgt>
<wgt id='1959'> +6.8415067e+01 </wgt>
<wgt id='1960'> +6.9145073e+01 </wgt>
<wgt id='1961'> +6.8133484e+01 </wgt>
<wgt id='1962'> +7.4619448e+01 </wgt>
<wgt id='1963'> +6.8784144e+01 </wgt>
<wgt id='1964'> +6.8923241e+01 </wgt>
<wgt id='1965'> +6.8983415e+01 </wgt>
<wgt id='1966'> +6.8822197e+01 </wgt>
<wgt id='1967'> +6.8514519e+01 </wgt>
<wgt id='1968'> +6.8606188e+01 </wgt>
<wgt id='1969'> +6.8579266e+01 </wgt>
<wgt id='1970'> +6.8787103e+01 </wgt>
<wgt id='1971'> +6.8507326e+01 </wgt>
<wgt id='1972'> +6.8287269e+01 </wgt>
<wgt id='1973'> +6.9221717e+01 </wgt>
<wgt id='1974'> +6.9069124e+01 </wgt>
<wgt id='1975'> +6.8827198e+01 </wgt>
<wgt id='1976'> +6.9078536e+01 </wgt>
<wgt id='1977'> +6.8984052e+01 </wgt>
<wgt id='1978'> +6.9036592e+01 </wgt>
<wgt id='1979'> +6.8841224e+01 </wgt>
<wgt id='1980'> +6.8930843e+01 </wgt>
<wgt id='1981'> +6.8636371e+01 </wgt>
<wgt id='1982'> +6.8509763e+01 </wgt>
<wgt id='1983'> +6.8863189e+01 </wgt>
<wgt id='1984'> +6.9156776e+01 </wgt>
<wgt id='1985'> +6.8701156e+01 </wgt>
<wgt id='1986'> +6.7539697e+01 </wgt>
<wgt id='1987'> +6.8753165e+01 </wgt>
<wgt id='1988'> +6.6413518e+01 </wgt>
<wgt id='1989'> +7.1786044e+01 </wgt>
<wgt id='1990'> +4.4835323e+01 </wgt>
<wgt id='1991'> +4.4796549e+01 </wgt>
<wgt id='1992'> +4.4873965e+01 </wgt>
<wgt id='1993'> +4.4849540e+01 </wgt>
<wgt id='1994'> +4.4820985e+01 </wgt>
<wgt id='1995'> +4.4770461e+01 </wgt>
<wgt id='1996'> +4.4900242e+01 </wgt>
<wgt id='1997'> +4.4976627e+01 </wgt>
<wgt id='1998'> +4.4696457e+01 </wgt>
<wgt id='1999'> +4.4766992e+01 </wgt>
<wgt id='2000'> +4.4910807e+01 </wgt>
<wgt id='2001'> +4.4797880e+01 </wgt>
<wgt id='2002'> +4.4884669e+01 </wgt>
<wgt id='2003'> +4.5042084e+01 </wgt>
<wgt id='2004'> +4.4631037e+01 </wgt>
<wgt id='2005'> +4.4906799e+01 </wgt>
<wgt id='2006'> +4.4765212e+01 </wgt>
<wgt id='2007'> +4.4829438e+01 </wgt>
<wgt id='2008'> +4.4873037e+01 </wgt>
<wgt id='2009'> +4.5570142e+01 </wgt>
<wgt id='2010'> +4.4164488e+01 </wgt>
<wgt id='2011'> +4.5054121e+01 </wgt>
<wgt id='2012'> +4.4647861e+01 </wgt>
<wgt id='2013'> +4.4630524e+01 </wgt>
<wgt id='2014'> +4.5228029e+01 </wgt>
<wgt id='2015'> +4.4376812e+01 </wgt>
<wgt id='2016'> +4.5247491e+01 </wgt>
<wgt id='2017'> +4.5310792e+01 </wgt>
<wgt id='2018'> +4.4522489e+01 </wgt>
<wgt id='2019'> +4.4835323e+01 </wgt>
<wgt id='2020'> +4.4919370e+01 </wgt>
<wgt id='2021'> +4.4416635e+01 </wgt>
<wgt id='2022'> +4.4941789e+01 </wgt>
<wgt id='2023'> +4.4505391e+01 </wgt>
<wgt id='2024'> +4.3767117e+01 </wgt>
<wgt id='2025'> +4.6532765e+01 </wgt>
<wgt id='2026'> +4.4752301e+01 </wgt>
<wgt id='2027'> +4.4667088e+01 </wgt>
<wgt id='2028'> +4.4990484e+01 </wgt>
<wgt id='2029'> +4.4420458e+01 </wgt>
<wgt id='2030'> +4.4819306e+01 </wgt>
<wgt id='2031'> +4.4417762e+01 </wgt>
<wgt id='2032'> +4.5659565e+01 </wgt>
<wgt id='2033'> +5.4891462e+01 </wgt>
<wgt id='2034'> +5.4569248e+01 </wgt>
<wgt id='2035'> +5.4663784e+01 </wgt>
<wgt id='2036'> +5.4620447e+01 </wgt>
<wgt id='2037'> +5.4612724e+01 </wgt>
<wgt id='2038'> +5.4589225e+01 </wgt>
<wgt id='2039'> +5.4643954e+01 </wgt>
<wgt id='2040'> +5.4836873e+01 </wgt>
<wgt id='2041'> +5.4402233e+01 </wgt>
<wgt id='2042'> +5.4444663e+01 </wgt>
<wgt id='2043'> +5.4797499e+01 </wgt>
<wgt id='2044'> +5.4761203e+01 </wgt>
<wgt id='2045'> +5.4481823e+01 </wgt>
<wgt id='2046'> +5.4777941e+01 </wgt>
<wgt id='2047'> +5.4455452e+01 </wgt>
<wgt id='2048'> +5.4868800e+01 </wgt>
<wgt id='2049'> +5.4308610e+01 </wgt>
<wgt id='2050'> +5.4293942e+01 </wgt>
<wgt id='2051'> +5.4968895e+01 </wgt>
<wgt id='2052'> +5.5541022e+01 </wgt>
<wgt id='2053'> +5.3744664e+01 </wgt>
<wgt id='2054'> +5.6414031e+01 </wgt>
<wgt id='2055'> +5.3056831e+01 </wgt>
<wgt id='2056'> +5.3276783e+01 </wgt>
<wgt id='2057'> +5.5990478e+01 </wgt>
<wgt id='2058'> +5.3219845e+01 </wgt>
<wgt id='2059'> +5.6015919e+01 </wgt>
<wgt id='2060'> +5.3991626e+01 </wgt>
<wgt id='2061'> +5.5326745e+01 </wgt>
<wgt id='2062'> +5.4871062e+01 </wgt>
<wgt id='2063'> +5.4857062e+01 </wgt>
<wgt id='2064'> +5.4092996e+01 </wgt>
<wgt id='2065'> +5.4989249e+01 </wgt>
<wgt id='2066'> +5.4488638e+01 </wgt>
<wgt id='2067'> +5.0745713e+01 </wgt>
<wgt id='2068'> +5.8110475e+01 </wgt>
<wgt id='2069'> +5.4754933e+01 </wgt>
<wgt id='2070'> +5.4410980e+01 </wgt>
<wgt id='2071'> +5.5712876e+01 </wgt>
<wgt id='2072'> +5.0489748e+01 </wgt>
<wgt id='2073'> +5.5558575e+01 </wgt>
<wgt id='2074'> +5.3333416e+01 </wgt>
<wgt id='2075'> +5.7304990e+01 </wgt>
<wgt id='2076'> +6.8514490e+01 </wgt>
<wgt id='2077'> +6.8507669e+01 </wgt>
<wgt id='2078'> +6.8500987e+01 </wgt>
<wgt id='2079'> +6.8493973e+01 </wgt>
<wgt id='2080'> +6.8487295e+01 </wgt>
<wgt id='2081'> +6.8480611e+01 </wgt>
<wgt id='2082'> +6.8473763e+01 </wgt>
<wgt id='2083'> +6.8467084e+01 </wgt>
<wgt id='2084'> +6.8459989e+01 </wgt>
<wgt id='2085'> +6.8453158e+01 </wgt>
<wgt id='2086'> +6.8446465e+01 </wgt>
<wgt id='2087'> +6.8439745e+01 </wgt>
<wgt id='2088'> +6.8432757e+01 </wgt>
<wgt id='2089'> +6.8426089e+01 </wgt>
<wgt id='2090'> +6.8419229e+01 </wgt>
<wgt id='2091'> +6.8412561e+01 </wgt>
<wgt id='2092'> +6.8405877e+01 </wgt>
<wgt id='2093'> +6.8398880e+01 </wgt>
<wgt id='2094'> +6.8392199e+01 </wgt>
<wgt id='2095'> +6.8385265e+01 </wgt>
<wgt id='2096'> +6.8378430e+01 </wgt>
<wgt id='2097'> +6.8371763e+01 </wgt>
<wgt id='2098'> +6.8364905e+01 </wgt>
<wgt id='2099'> +6.8358023e+01 </wgt>
<wgt id='2100'> +6.8351359e+01 </wgt>
<wgt id='2101'> +6.8344676e+01 </wgt>
<wgt id='2102'> +6.8337826e+01 </wgt>
<wgt id='2103'> +6.8330993e+01 </wgt>
<wgt id='2104'> +6.8324175e+01 </wgt>
<wgt id='2105'> +6.8317487e+01 </wgt>
<wgt id='2106'> +6.8310558e+01 </wgt>
<wgt id='2107'> +6.7970637e+01 </wgt>
<wgt id='2108'> +6.8668258e+01 </wgt>
<wgt id='2109'> +6.7744739e+01 </wgt>
<wgt id='2110'> +6.8774097e+01 </wgt>
<wgt id='2111'> +6.8508625e+01 </wgt>
<wgt id='2112'> +6.8607822e+01 </wgt>
<wgt id='2113'> +6.8024108e+01 </wgt>
<wgt id='2114'> +6.7563863e+01 </wgt>
<wgt id='2115'> +6.7289428e+01 </wgt>
<wgt id='2116'> +6.8293887e+01 </wgt>
<wgt id='2117'> +6.8368030e+01 </wgt>
<wgt id='2118'> +6.6808068e+01 </wgt>
<wgt id='2119'> +6.8983978e+01 </wgt>
<wgt id='2120'> +6.9716662e+01 </wgt>
<wgt id='2121'> +6.8968839e+01 </wgt>
<wgt id='2122'> +6.7728702e+01 </wgt>
<wgt id='2123'> +6.6848111e+01 </wgt>
<wgt id='2124'> +6.8249707e+01 </wgt>
<wgt id='2125'> +6.8497609e+01 </wgt>
<wgt id='2126'> +6.8798466e+01 </wgt>
<wgt id='2127'> +6.4914166e+01 </wgt>
<wgt id='2128'> +6.6116465e+01 </wgt>
<wgt id='2129'> +6.9073830e+01 </wgt>
<wgt id='2130'> +6.4891286e+01 </wgt>
<wgt id='2131'> +6.6958678e+01 </wgt>
<wgt id='2132'> +6.8759738e+01 </wgt>
<wgt id='2133'> +6.7245588e+01 </wgt>
<wgt id='2134'> +6.8163872e+01 </wgt>
<wgt id='2135'> +6.8617573e+01 </wgt>
<wgt id='2136'> +6.8093870e+01 </wgt>
<wgt id='2137'> +6.7780321e+01 </wgt>
<wgt id='2138'> +6.7787882e+01 </wgt>
<wgt id='2139'> +6.8097198e+01 </wgt>
<wgt id='2140'> +6.8199339e+01 </wgt>
<wgt id='2141'> +6.8239529e+01 </wgt>
<wgt id='2142'> +6.8174422e+01 </wgt>
<wgt id='2143'> +6.8057743e+01 </wgt>
<wgt id='2144'> +6.8043306e+01 </wgt>
<wgt id='2145'> +6.8158965e+01 </wgt>
<wgt id='2146'> +6.7984019e+01 </wgt>
<wgt id='2147'> +6.7764621e+01 </wgt>
<wgt id='2148'> +6.8013867e+01 </wgt>
<wgt id='2149'> +6.8206362e+01 </wgt>
<wgt id='2150'> +6.7633578e+01 </wgt>
<wgt id='2151'> +6.8221162e+01 </wgt>
<wgt id='2152'> +6.7957181e+01 </wgt>
<wgt id='2153'> +6.7779943e+01 </wgt>
<wgt id='2154'> +6.8037535e+01 </wgt>
<wgt id='2155'> +6.7946556e+01 </wgt>
<wgt id='2156'> +6.7883188e+01 </wgt>
<wgt id='2157'> +6.7966690e+01 </wgt>
<wgt id='2158'> +6.8118832e+01 </wgt>
<wgt id='2159'> +6.8111985e+01 </wgt>
<wgt id='2160'> +6.8056023e+01 </wgt>
<wgt id='2161'> +6.7903676e+01 </wgt>
<wgt id='2162'> +6.7915990e+01 </wgt>
<wgt id='2163'> +6.7963261e+01 </wgt>
<wgt id='2164'> +6.7944118e+01 </wgt>
<wgt id='2165'> +6.7866797e+01 </wgt>
<wgt id='2166'> +6.7904850e+01 </wgt>
<wgt id='2167'> +6.7995821e+01 </wgt>
<wgt id='2168'> +6.7913264e+01 </wgt>
<wgt id='2169'> +6.8012055e+01 </wgt>
<wgt id='2170'> +6.7969522e+01 </wgt>
<wgt id='2171'> +6.8085961e+01 </wgt>
<wgt id='2172'> +6.7891094e+01 </wgt>
<wgt id='2173'> +6.7890883e+01 </wgt>
<wgt id='2174'> +6.7883389e+01 </wgt>
<wgt id='2175'> +6.7997371e+01 </wgt>
<wgt id='2176'> +6.8062653e+01 </wgt>
<wgt id='2177'> +6.7967526e+01 </wgt>
<wgt id='2178'> +6.7983527e+01 </wgt>
<wgt id='2179'> +6.7982110e+01 </wgt>
<wgt id='2180'> +6.7958451e+01 </wgt>
<wgt id='2181'> +6.8051281e+01 </wgt>
<wgt id='2182'> +6.7915759e+01 </wgt>
<wgt id='2183'> +6.7966961e+01 </wgt>
<wgt id='2184'> +6.8012874e+01 </wgt>
<wgt id='2185'> +6.8024722e+01 </wgt>
<wgt id='2186'> +6.7891979e+01 </wgt>
<wgt id='2187'> +6.8058573e+01 </wgt>
<wgt id='2188'> +6.7965186e+01 </wgt>
<wgt id='2189'> +6.7945794e+01 </wgt>
<wgt id='2190'> +6.7954927e+01 </wgt>
<wgt id='2191'> +6.7866598e+01 </wgt>
<wgt id='2192'> +6.7877751e+01 </wgt>
<wgt id='2193'> +6.8032954e+01 </wgt>
<wgt id='2194'> +6.7807172e+01 </wgt>
<wgt id='2195'> +6.7909771e+01 </wgt>
<wgt id='2196'> +6.7934182e+01 </wgt>
<wgt id='2197'> +6.8010982e+01 </wgt>
<wgt id='2198'> +6.7920044e+01 </wgt>
<wgt id='2199'> +6.7955580e+01 </wgt>
<wgt id='2200'> +6.7944636e+01 </wgt>
<wgt id='2201'> +6.7912777e+01 </wgt>
<wgt id='2202'> +6.7964769e+01 </wgt>
<wgt id='2203'> +6.7942069e+01 </wgt>
<wgt id='2204'> +6.7972480e+01 </wgt>
<wgt id='2205'> +6.7966164e+01 </wgt>
<wgt id='2206'> +6.7913737e+01 </wgt>
<wgt id='2207'> +6.7976790e+01 </wgt>
<wgt id='2208'> +6.7969890e+01 </wgt>
<wgt id='2209'> +6.7965715e+01 </wgt>
<wgt id='2210'> +6.7971423e+01 </wgt>
<wgt id='2211'> +6.7971545e+01 </wgt>
<wgt id='2212'> +6.7972921e+01 </wgt>
<wgt id='2213'> +6.7970969e+01 </wgt>
<wgt id='2214'> +6.7967353e+01 </wgt>
<wgt id='2215'> +6.9383221e+01 </wgt>
<wgt id='2216'> +6.5844869e+01 </wgt>
<wgt id='2217'> +7.3479505e+01 </wgt>
<wgt id='2218'> +6.8279712e+01 </wgt>
<wgt id='2219'> +6.9911709e+01 </wgt>
<wgt id='2220'> +6.2727101e+01 </wgt>
<wgt id='2221'> +7.3108180e+01 </wgt>
<wgt id='2222'> +6.5990770e+01 </wgt>
<wgt id='2223'> +7.0834354e+01 </wgt>
<wgt id='2224'> +7.0918472e+01 </wgt>
<wgt id='2225'> +6.4417958e+01 </wgt>
<wgt id='2226'> +7.4135193e+01 </wgt>
<wgt id='2227'> +6.7562566e+01 </wgt>
<wgt id='2228'> +7.3026475e+01 </wgt>
<wgt id='2229'> +7.3733758e+01 </wgt>
<wgt id='2230'> +7.0878290e+01 </wgt>
<wgt id='2231'> +6.7664710e+01 </wgt>
<wgt id='2232'> +8.4511757e+01 </wgt>
<wgt id='2233'> +7.2809858e+01 </wgt>
<wgt id='2234'> +6.7313117e+01 </wgt>
<wgt id='2235'> +6.6699931e+01 </wgt>
<wgt id='2236'> +6.6306340e+01 </wgt>
<wgt id='2237'> +5.8615969e+01 </wgt>
<wgt id='2238'> +6.1348424e+01 </wgt>
<wgt id='2239'> +6.0652592e+01 </wgt>
<wgt id='2240'> +6.9632668e+01 </wgt>
<wgt id='2241'> +6.8229521e+01 </wgt>
<wgt id='2242'> +8.3270282e+01 </wgt>
<wgt id='2243'> +7.6391178e+01 </wgt>
<wgt id='2244'> +7.5339403e+01 </wgt>
<wgt id='2245'> +6.6792864e+01 </wgt>
<wgt id='2246'> +6.5867853e+01 </wgt>
<wgt id='2247'> +6.8538224e+01 </wgt>
<wgt id='2248'> +6.8717689e+01 </wgt>
<wgt id='2249'> +6.3793384e+01 </wgt>
<wgt id='2250'> +7.5093490e+01 </wgt>
<wgt id='2251'> +6.6299722e+01 </wgt>
<wgt id='2252'> +7.4881156e+01 </wgt>
<wgt id='2253'> +6.3203795e+01 </wgt>
<wgt id='2254'> +6.5862740e+01 </wgt>
<wgt id='2255'> +6.7946940e+01 </wgt>
<wgt id='2256'> +6.2438831e+01 </wgt>
<wgt id='2257'> +7.2633326e+01 </wgt>
<wgt id='2258'> +6.3404901e+01 </wgt>
<wgt id='2259'> +6.7963334e+01 </wgt>
<wgt id='2260'> +5.9480021e+01 </wgt>
<wgt id='2261'> +5.7933065e+01 </wgt>
<wgt id='2262'> +7.4485537e+01 </wgt>
<wgt id='2263'> +7.2818525e+01 </wgt>
<wgt id='2264'> +7.1027811e+01 </wgt>
<wgt id='2265'> +6.8868031e+01 </wgt>
<wgt id='2266'> +6.8728025e+01 </wgt>
<wgt id='2267'> +6.4416527e+01 </wgt>
<wgt id='2268'> +6.8055134e+01 </wgt>
<wgt id='2269'> +7.5942153e+01 </wgt>
<wgt id='2270'> +6.8558132e+01 </wgt>
<wgt id='2271'> +7.6238704e+01 </wgt>
<wgt id='2272'> +6.7454932e+01 </wgt>
<wgt id='2273'> +7.0365866e+01 </wgt>
<wgt id='2274'> +7.0095017e+01 </wgt>
<wgt id='2275'> +6.4993475e+01 </wgt>
<wgt id='2276'> +6.8653891e+01 </wgt>
<wgt id='2277'> +6.4834637e+01 </wgt>
<wgt id='2278'> +7.7234742e+01 </wgt>
<wgt id='2279'> +7.6788768e+01 </wgt>
<wgt id='2280'> +7.5440570e+01 </wgt>
<wgt id='2281'> +6.8985392e+01 </wgt>
<wgt id='2282'> +6.3768042e+01 </wgt>
<wgt id='2283'> +7.1552058e+01 </wgt>
<wgt id='2284'> +7.5135153e+01 </wgt>
<wgt id='2285'> +7.6108021e+01 </wgt>
<wgt id='2286'> +5.9140983e+01 </wgt>
<wgt id='2287'> +6.7872556e+01 </wgt>
<wgt id='2288'> +7.0374044e+01 </wgt>
<wgt id='2289'> +7.4751936e+01 </wgt>
<wgt id='2290'> +6.8069207e+01 </wgt>
<wgt id='2291'> +6.2390984e+01 </wgt>
<wgt id='2292'> +6.4404025e+01 </wgt>
<wgt id='2293'> +7.5263295e+01 </wgt>
<wgt id='2294'> +6.7671836e+01 </wgt>
<wgt id='2295'> +6.8893449e+01 </wgt>
<wgt id='2296'> +6.2634483e+01 </wgt>
<wgt id='2297'> +6.6584828e+01 </wgt>
<wgt id='2298'> +7.6990624e+01 </wgt>
<wgt id='2299'> +6.6965917e+01 </wgt>
<wgt id='2300'> +7.1788663e+01 </wgt>
<wgt id='2301'> +7.4137796e+01 </wgt>
<wgt id='2302'> +7.1154057e+01 </wgt>
<wgt id='2303'> +7.3789593e+01 </wgt>
<wgt id='2304'> +7.0738483e+01 </wgt>
<wgt id='2305'> +6.9366687e+01 </wgt>
<wgt id='2306'> +6.8949822e+01 </wgt>
<wgt id='2307'> +6.4383488e+01 </wgt>
<wgt id='2308'> +7.2253093e+01 </wgt>
<wgt id='2309'> +6.7796059e+01 </wgt>
<wgt id='2310'> +7.9913043e+01 </wgt>
<wgt id='2311'> +7.1790368e+01 </wgt>
<wgt id='2312'> +6.7757482e+01 </wgt>
<wgt id='2313'> +5.7492119e+01 </wgt>
<wgt id='2314'> +7.2930895e+01 </wgt>
<wgt id='2315'> +7.5434923e+01 </wgt>
<wgt id='2316'> +6.7416048e+01 </wgt>
<wgt id='2317'> +7.1127068e+01 </wgt>
<wgt id='2318'> +6.6236138e+01 </wgt>
<wgt id='2319'> +5.7486439e+01 </wgt>
<wgt id='2320'> +6.7404666e+01 </wgt>
<wgt id='2321'> +6.8217786e+01 </wgt>
<wgt id='2322'> +6.5878689e+01 </wgt>
</rwgt>
</event>
<event>
13      2 +6.1139206e+01 2.50410400e+02 7.56146200e-03 1.02469300e-01
       21 -1    0    0  502  504 +0.0000000000e+00 +0.0000000000e+00 +3.3720870746e+02 3.3720870746e+02 0.0000000000e+00 0.0000e+00 -1.0000e+00
       -1 -1    0    0    0  501 -0.0000000000e+00 -0.0000000000e+00 -6.7183128725e+02 6.7183128725e+02 0.0000000000e+00 0.0000e+00 1.0000e+00
       -6  2    1    2    0  501 -5.1010053946e+01 +1.6440841212e+02 +1.9300803174e+01 2.4668560342e+02 1.7563915950e+02 0.0000e+00 0.0000e+00
      -24  2    3    3    0    0 +2.0930338298e+00 +1.3104174805e+02 +6.7349987294e+01 1.6756879927e+02 7.9793240186e+01 0.0000e+00 0.0000e+00
        6  2    1    2  502    0 +5.8414568721e+01 -1.7318606506e+02 +1.2765639135e+02 2.8063771828e+02 1.7045732515e+02 0.0000e+00 0.0000e+00
       24  2    5    5    0    0 +3.2616297591e+01 -4.7470204714e+01 +1.3786366231e+00 1.0054448666e+02 8.2401759416e+01 0.0000e+00 0.0000e+00
      -15  1    6    6    0    0 -4.4098764111e+00 -1.4412303870e+01 +3.6666254544e+01 3.9643104509e+01 0.0000000000e+00 0.0000e+00 1.0000e+00
       16  1    6    6    0    0 +3.7026174002e+01 -3.3057900844e+01 -3.5287617921e+01 6.0901382152e+01 0.0000000000e+00 0.0000e+00 -1.0000e+00
        5  1    5    5  502    0 +2.5798271129e+01 -1.2571586034e+02 +1.2627775473e+02 1.8009323162e+02 4.1800000000e+00 0.0000e+00 -1.0000e+00
        3  1    4    4  503    0 -3.0663210215e+01 +4.2456761449e+01 +4.8249212188e+01 7.1209518536e+01 0.0000000000e+00 0.0000e+00 -1.0000e+00
       -4  1    4    4    0  503 +3.2756244045e+01 +8.8584986598e+01 +1.9100775107e+01 9.6359280737e+01 0.0000000000e+00 0.0000e+00 1.0000e+00
       -5  1    3    3    0  501 -5.3103087776e+01 +3.3366664078e+01 -4.8049184121e+01 7.9116804142e+01 4.1800000000e+00 0.0000e+00 1.0000e+00
       -1  1    1    2    0  504 -7.4045147742e+00 +8.7776529304e+00 -4.8157977432e+02 4.8171667301e+02 0.0000000000e+00 0.0000e+00 1.0000e+00
<scales pt_clust_7="13000.00000" pt_clust_8="13000.00000" pt_clust_9="13000.00000" pt_clust_10="13000.00000" pt_clust_11="13000.00000" pt_clust_12="13000.00000" pt_clust_13="11.48364"></scales>
<mgrwt>
<rscale>  2 0.24950380E+03</rscale>
<asrwt>  1 0.11483642E+02</asrwt>
<pdfrwt beam="1">  1       21 0.51878263E-01 0.24680352E+03</pdfrwt>
<pdfrwt beam="2">  2       -1       21 0.10335866E+00 0.29237952E-01 0.11483642E+02 0.25041044E+03</pdfrwt>
<totfact> 0.83407663E-01</totfact>
</mgrwt>
<clustering>
<clus scale="   11.484">  2 13  1 -1</clus>
<clus scale="   79.793"> 10 11 -1 -1</clus>
<clus scale="   82.402">  7  8 -1 -1</clus>
<clus scale="  170.457">  7  9 -1 -1</clus>
<clus scale="  175.639"> 10 12 -1 -1</clus>
<clus scale="  246.804">  1  7  2 -1</clus>
<clus scale="  246.804">  1  7  2 -1</clus>
</clustering>
<rwgt>
<wgt id='dummy'> +6.1139206e+01 </wgt>
<wgt id='ctGRe_0p_cQj18_0p_cQj38_0p_cQj11_0p_cjj31_0p_ctu8_0p_ctd8_0p_ctj8_0p_cQu8_0p_cQd8_0p_ctu1_0p_ctd1_0p_ctj1_0p_cQu1_0p_cQd1_0p'> +6.1139206e+01 </wgt>
<wgt id='ctGRe_1p_cQj18_0p_cQj38_0p_cQj11_0p_cjj31_0p_ctu8_0p_ctd8_0p_ctj8_0p_cQu8_0p_cQd8_0p_ctu1_0p_ctd1_0p_ctj1_0p_cQu1_0p_cQd1_0p'> +4.6705756e+01 </wgt>
<wgt id='ctGRe_0p_cQj18_1p_cQj38_0p_cQj11_0p_cjj31_0p_ctu8_0p_ctd8_0p_ctj8_0p_cQu8_0p_cQd8_0p_ctu1_0p_ctd1_0p_ctj1_0p_cQu1_0p_cQd1_0p'> +6.1140831e+01 </wgt>
<wgt id='ctGRe_0p_cQj18_0p_cQj38_1p_cQj11_0p_cjj31_0p_ctu8_0p_ctd8_0p_ctj8_0p_cQu8_0p_cQd8_0p_ctu1_0p_ctd1_0p_ctj1_0p_cQu1_0p_cQd1_0p'> +6.1138908e+01 </wgt>
<wgt id='ctGRe_0p_cQj18_0p_cQj38_0p_cQj11_1p_cjj31_0p_ctu8_0p_ctd8_0p_ctj8_0p_cQu8_0p_cQd8_0p_ctu1_0p_ctd1_0p_ctj1_0p_cQu1_0p_cQd1_0p'> +6.1303762e+01 </wgt>
<wgt id='ctGRe_0p_cQj18_0p_cQj38_0p_cQj11_0p_cjj31_1p_ctu8_0p_ctd8_0p_ctj8_0p_cQu8_0p_cQd8_0p_ctu1_0p_ctd1_0p_ctj1_0p_cQu1_0p_cQd1_0p'> +6.1139206e+01 </wgt>
<wgt id='ctGRe_0p_cQj18_0p_cQj38_0p_cQj11_0p_cjj31_0p_ctu8_1p_ctd8_0p_ctj8_0p_cQu8_0p_cQd8_0p_ctu1_0p_ctd1_0p_ctj1_0p_cQu1_0p_cQd1_0p'> +6.1139206e+01 </wgt>
<wgt id='ctGRe_0p_cQj18_0p_cQj38_0p_cQj11_0p_cjj31_0p_ctu8_0p_ctd8_1p_ctj8_0p_cQu8_0p_cQd8_0p_ctu1_0p_ctd1_0p_ctj1_0p_cQu1_0p_cQd1_0p'> +6.1139206e+01 </wgt>
<wgt id='ctGRe_0p_cQj18_0p_cQj38_0p_cQj11_0p_cjj31_0p_ctu8_0p_ctd8_0p_ctj8_1p_cQu8_0p_cQd8_0p_ctu1_0p_ctd1_0p_ctj1_0p_cQu1_0p_cQd1_0p'> +6.1290452e+01 </wgt>
<wgt id='ctGRe_0p_cQj18_0p_cQj38_0p_cQj11_0p_cjj31_0p_ctu8_0p_ctd8_0p_ctj8_0p_cQu8_1p_cQd8_0p_ctu1_0p_ctd1_0p_ctj1_0p_cQu1_0p_cQd1_0p'> +6.1139206e+01 </wgt>
<wgt id='ctGRe_0p_cQj18_0p_cQj38_0p_cQj11_0p_cjj31_0p_ctu8_0p_ctd8_0p_ctj8_0p_cQu8_0p_cQd8_1p_ctu1_0p_ctd1_0p_ctj1_0p_cQu1_0p_cQd1_0p'> +6.1139206e+01 </wgt>
<wgt id='ctGRe_0p_cQj18_0p_cQj38_0p_cQj11_0p_cjj31_0p_ctu8_0p_ctd8_0p_ctj8_0p_cQu8_0p_cQd8_0p_ctu1_1p_ctd1_0p_ctj1_0p_cQu1_0p_cQd1_0p'> +6.1139206e+01 </wgt>
<wgt id='ctGRe_0p_cQj18_0p_cQj38_0p_cQj11_0p_cjj31_0p_ctu8_0p_ctd8_0p_ctj8_0p_cQu8_0p_cQd8_0p_ctu1_0p_ctd1_1p_ctj1_0p_cQu1_0p_cQd1_0p'> +6.1139206e+01 </wgt>
<wgt id='ctGRe_0p_cQj18_0p_cQj38_0p_cQj11_0p_cjj31_0p_ctu8_0p_ctd8_0p_ctj8_0p_cQu8_0p_cQd8_0p_ctu1_0p_ctd1_0p_ctj1_1p_cQu1_0p_cQd1_0p'> +6.1066180e+01 </wgt>
<wgt id='ctGRe_0p_cQj18_0p_cQj38_0p_cQj11_0p_cjj31_0p_ctu8_0p_ctd8_0p_ctj8_0p_cQu8_0p_cQd8_0p_ctu1_0p_ctd1_0p_ctj1_0p_cQu1_1p_cQd1_0p'> +6.1139206e+01 </wgt>
<wgt id='ctGRe_0p_cQj18_0p_cQj38_0p_cQj11_0p_cjj31_0p_ctu8_0p_ctd8_0p_ctj8_0p_cQu8_0p_cQd8_0p_ctu1_0p_ctd1_0p_ctj1_0p_cQu1_0p_cQd1_1p'> +6.1139206e+01 </wgt>
<wgt id='ctGRe_2p_cQj18_0p_cQj38_0p_cQj11_0p_cjj31_0p_ctu8_0p_ctd8_0p_ctj8_0p_cQu8_0p_cQd8_0p_ctu1_0p_ctd1_0p_ctj1_0p_cQu1_0p_cQd1_0p'> +3.6039911e+01 </wgt>
<wgt id='ctGRe_1p_cQj18_1p_cQj38_0p_cQj11_0p_cjj31_0p_ctu8_0p_ctd8_0p_ctj8_0p_cQu8_0p_cQd8_0p_ctu1_0p_ctd1_0p_ctj1_0p_cQu1_0p_cQd1_0p'> +4.6751767e+01 </wgt>
<wgt id='ctGRe_1p_cQj18_0p_cQj38_1p_cQj11_0p_cjj31_0p_ctu8_0p_ctd8_0p_ctj8_0p_cQu8_0p_cQd8_0p_ctu1_0p_ctd1_0p_ctj1_0p_cQu1_0p_cQd1_0p'> +4.6661073e+01 </wgt>
<wgt id='ctGRe_1p_cQj18_0p_cQj38_0p_cQj11_1p_cjj31_0p_ctu8_0p_ctd8_0p_ctj8_0p_cQu8_0p_cQd8_0p_ctu1_0p_ctd1_0p_ctj1_0p_cQu1_0p_cQd1_0p'> +4.6848023e+01 </wgt>
<wgt id='ctGRe_1p_cQj18_0p_cQj38_0p_cQj11_0p_cjj31_1p_ctu8_0p_ctd8_0p_ctj8_0p_cQu8_0p_cQd8_0p_ctu1_0p_ctd1_0p_ctj1_0p_cQu1_0p_cQd1_0p'> +4.6705756e+01 </wgt>
<wgt id='ctGRe_1p_cQj18_0p_cQj38_0p_cQj11_0p_cjj31_0p_ctu8_1p_ctd8_0p_ctj8_0p_cQu8_0p_cQd8_0p_ctu1_0p_ctd1_0p_ctj1_0p_cQu1_0p_cQd1_0p'> +4.6705756e+01 </wgt>
<wgt id='ctGRe_1p_cQj18_0p_cQj38_0p_cQj11_0p_cjj31_0p_ctu8_0p_ctd8_1p_ctj8_0p_cQu8_0p_cQd8_0p_ctu1_0p_ctd1_0p_ctj1_0p_cQu1_0p_cQd1_0p'> +4.6705756e+01 </wgt>
<wgt id='ctGRe_1p_cQj18_0p_cQj38_0p_cQj11_0p_cjj31_0p_ctu8_0p_ctd8_0p_ctj8_1p_cQu8_0p_cQd8_0p_ctu1_0p_ctd1_0p_ctj1_0p_cQu1_0p_cQd1_0p'> +4.6828528e+01 </wgt>
<wgt id='ctGRe_1p_cQj18_0p_cQj38_0p_cQj11_0p_cjj31_0p_ctu8_0p_ctd8_0p_ctj8_0p_cQu8_1p_cQd8_0p_ctu1_0p_ctd1_0p_ctj1_0p_cQu1_0p_cQd1_0p'> +4.6705756e+01 </wgt>
<wgt id='ctGRe_1p_cQj18_0p_cQj38_0p_cQj11_0p_cjj31_0p_ctu8_0p_ctd8_0p_ctj8_0p_cQu8_0p_cQd8_1p_ctu1_0p_ctd1_0p_ctj1_0p_cQu1_0p_cQd1_0p'> +4.6705756e+01 </wgt>
<wgt id='ctGRe_1p_cQj18_0p_cQj38_0p_cQj11_0p_cjj31_0p_ctu8_0p_ctd8_0p_ctj8_0p_cQu8_0p_cQd8_0p_ctu1_1p_ctd1_0p_ctj1_0p_cQu1_0p_cQd1_0p'> +4.6705756e+01 </wgt>
<wgt id='ctGRe_1p_cQj18_0p_cQj38_0p_cQj11_0p_cjj31_0p_ctu8_0p_ctd8_0p_ctj8_0p_cQu8_0p_cQd8_0p_ctu1_0p_ctd1_1p_ctj1_0p_cQu1_0p_cQd1_0p'> +4.6705756e+01 </wgt>
<wgt id='ctGRe_1p_cQj18_0p_cQj38_0p_cQj11_0p_cjj31_0p_ctu8_0p_ctd8_0p_ctj8_0p_cQu8_0p_cQd8_0p_ctu1_0p_ctd1_0p_ctj1_1p_cQu1_0p_cQd1_0p'> +4.6639075e+01 </wgt>
<wgt id='ctGRe_1p_cQj18_0p_cQj38_0p_cQj11_0p_cjj31_0p_ctu8_0p_ctd8_0p_ctj8_0p_cQu8_0p_cQd8_0p_ctu1_0p_ctd1_0p_ctj1_0p_cQu1_1p_cQd1_0p'> +4.6705756e+01 </wgt>
<wgt id='ctGRe_1p_cQj18_0p_cQj38_0p_cQj11_0p_cjj31_0p_ctu8_0p_ctd8_0p_ctj8_0p_cQu8_0p_cQd8_0p_ctu1_0p_ctd1_0p_ctj1_0p_cQu1_0p_cQd1_1p'> +4.6705756e+01 </wgt>
<wgt id='ctGRe_0p_cQj18_2p_cQj38_0p_cQj11_0p_cjj31_0p_ctu8_0p_ctd8_0p_ctj8_0p_cQu8_0p_cQd8_0p_ctu1_0p_ctd1_0p_ctj1_0p_cQu1_0p_cQd1_0p'> +6.1143784e+01 </wgt>
<wgt id='ctGRe_0p_cQj18_1p_cQj38_1p_cQj11_0p_cjj31_0p_ctu8_0p_ctd8_0p_ctj8_0p_cQu8_0p_cQd8_0p_ctu1_0p_ctd1_0p_ctj1_0p_cQu1_0p_cQd1_0p'> +6.1139206e+01 </wgt>
<wgt id='ctGRe_0p_cQj18_1p_cQj38_0p_cQj11_1p_cjj31_0p_ctu8_0p_ctd8_0p_ctj8_0p_cQu8_0p_cQd8_0p_ctu1_0p_ctd1_0p_ctj1_0p_cQu1_0p_cQd1_0p'> +6.1305072e+01 </wgt>
<wgt id='ctGRe_0p_cQj18_1p_cQj38_0p_cQj11_0p_cjj31_1p_ctu8_0p_ctd8_0p_ctj8_0p_cQu8_0p_cQd8_0p_ctu1_0p_ctd1_0p_ctj1_0p_cQu1_0p_cQd1_0p'> +6.1140831e+01 </wgt>
<wgt id='ctGRe_0p_cQj18_1p_cQj38_0p_cQj11_0p_cjj31_0p_ctu8_1p_ctd8_0p_ctj8_0p_cQu8_0p_cQd8_0p_ctu1_0p_ctd1_0p_ctj1_0p_cQu1_0p_cQd1_0p'> +6.1140831e+01 </wgt>
<wgt id='ctGRe_0p_cQj18_1p_cQj38_0p_cQj11_0p_cjj31_0p_ctu8_0p_ctd8_1p_ctj8_0p_cQu8_0p_cQd8_0p_ctu1_0p_ctd1_0p_ctj1_0p_cQu1_0p_cQd1_0p'> +6.1140831e+01 </wgt>
<wgt id='ctGRe_0p_cQj18_1p_cQj38_0p_cQj11_0p_cjj31_0p_ctu8_0p_ctd8_0p_ctj8_1p_cQu8_0p_cQd8_0p_ctu1_0p_ctd1_0p_ctj1_0p_cQu1_0p_cQd1_0p'> +6.1291879e+01 </wgt>
<wgt id='ctGRe_0p_cQj18_1p_cQj38_0p_cQj11_0p_cjj31_0p_ctu8_0p_ctd8_0p_ctj8_0p_cQu8_1p_cQd8_0p_ctu1_0p_ctd1_0p_ctj1_0p_cQu1_0p_cQd1_0p'> +6.1140831e+01 </wgt>
<wgt id='ctGRe_0p_cQj18_1p_cQj38_0p_cQj11_0p_cjj31_0p_ctu8_0p_ctd8_0p_ctj8_0p_cQu8_0p_cQd8_1p_ctu1_0p_ctd1_0p_ctj1_0p_cQu1_0p_cQd1_0p'> +6.1140831e+01 </wgt>
<wgt id='ctGRe_0p_cQj18_1p_cQj38_0p_cQj11_0p_cjj31_0p_ctu8_0p_ctd8_0p_ctj8_0p_cQu8_0p_cQd8_0p_ctu1_1p_ctd1_0p_ctj1_0p_cQu1_0p_cQd1_0p'> +6.1140831e+01 </wgt>
<wgt id='ctGRe_0p_cQj18_1p_cQj38_0p_cQj11_0p_cjj31_0p_ctu8_0p_ctd8_0p_ctj8_0p_cQu8_0p_cQd8_0p_ctu1_0p_ctd1_1p_ctj1_0p_cQu1_0p_cQd1_0p'> +6.1140831e+01 </wgt>
<wgt id='ctGRe_0p_cQj18_1p_cQj38_0p_cQj11_0p_cjj31_0p_ctu8_0p_ctd8_0p_ctj8_0p_cQu8_0p_cQd8_0p_ctu1_0p_ctd1_0p_ctj1_1p_cQu1_0p_cQd1_0p'> +6.1067971e+01 </wgt>
<wgt id='ctGRe_0p_cQj18_1p_cQj38_0p_cQj11_0p_cjj31_0p_ctu8_0p_ctd8_0p_ctj8_0p_cQu8_0p_cQd8_0p_ctu1_0p_ctd1_0p_ctj1_0p_cQu1_1p_cQd1_0p'> +6.1140831e+01 </wgt>
<wgt id='ctGRe_0p_cQj18_1p_cQj38_0p_cQj11_0p_cjj31_0p_ctu8_0p_ctd8_0p_ctj8_0p_cQu8_0p_cQd8_0p_ctu1_0p_ctd1_0p_ctj1_0p_cQu1_0p_cQd1_1p'> +6.1140831e+01 </wgt>
<wgt id='ctGRe_0p_cQj18_0p_cQj38_2p_cQj11_0p_cjj31_0p_ctu8_0p_ctd8_0p_ctj8_0p_cQu8_0p_cQd8_0p_ctu1_0p_ctd1_0p_ctj1_0p_cQu1_0p_cQd1_0p'> +6.1139938e+01 </wgt>
<wgt id='ctGRe_0p_cQj18_0p_cQj38_1p_cQj11_1p_cjj31_0p_ctu8_0p_ctd8_0p_ctj8_0p_cQu8_0p_cQd8_0p_ctu1_0p_ctd1_0p_ctj1_0p_cQu1_0p_cQd1_0p'> +6.1303778e+01 </wgt>
<wgt id='ctGRe_0p_cQj18_0p_cQj38_1p_cQj11_0p_cjj31_1p_ctu8_0p_ctd8_0p_ctj8_0p_cQu8_0p_cQd8_0p_ctu1_0p_ctd1_0p_ctj1_0p_cQu1_0p_cQd1_0p'> +6.1138908e+01 </wgt>
<wgt id='ctGRe_0p_cQj18_0p_cQj38_1p_cQj11_0p_cjj31_0p_ctu8_1p_ctd8_0p_ctj8_0p_cQu8_0p_cQd8_0p_ctu1_0p_ctd1_0p_ctj1_0p_cQu1_0p_cQd1_0p'> +6.1138908e+01 </wgt>
<wgt id='ctGRe_0p_cQj18_0p_cQj38_1p_cQj11_0p_cjj31_0p_ctu8_0p_ctd8_1p_ctj8_0p_cQu8_0p_cQd8_0p_ctu1_0p_ctd1_0p_ctj1_0p_cQu1_0p_cQd1_0p'> +6.1138908e+01 </wgt>
<wgt id='ctGRe_0p_cQj18_0p_cQj38_1p_cQj11_0p_cjj31_0p_ctu8_0p_ctd8_0p_ctj8_1p_cQu8_0p_cQd8_0p_ctu1_0p_ctd1_0p_ctj1_0p_cQu1_0p_cQd1_0p'> +6.1290353e+01 </wgt>
<wgt id='ctGRe_0p_cQj18_0p_cQj38_1p_cQj11_0p_cjj31_0p_ctu8_0p_ctd8_0p_ctj8_0p_cQu8_1p_cQd8_0p_ctu1_0p_ctd1_0p_ctj1_0p_cQu1_0p_cQd1_0p'> +6.1138908e+01 </wgt>
<wgt id='ctGRe_0p_cQj18_0p_cQj38_1p_cQj11_0p_cjj31_0p_ctu8_0p_ctd8_0p_ctj8_0p_cQu8_0p_cQd8_1p_ctu1_0p_ctd1_0p_ctj1_0p_cQu1_0p_cQd1_0p'> +6.1138908e+01 </wgt>
<wgt id='ctGRe_0p_cQj18_0p_cQj38_1p_cQj11_0p_cjj31_0p_ctu8_0p_ctd8_0p_ctj8_0p_cQu8_0p_cQd8_0p_ctu1_1p_ctd1_0p_ctj1_0p_cQu1_0p_cQd1_0p'> +6.1138908e+01 </wgt>
<wgt id='ctGRe_0p_cQj18_0p_cQj38_1p_cQj11_0p_cjj31_0p_ctu8_0p_ctd8_0p_ctj8_0p_cQu8_0p_cQd8_0p_ctu1_0p_ctd1_1p_ctj1_0p_cQu1_0p_cQd1_0p'> +6.1138908e+01 </wgt>
<wgt id='ctGRe_0p_cQj18_0p_cQj38_1p_cQj11_0p_cjj31_0p_ctu8_0p_ctd8_0p_ctj8_0p_cQu8_0p_cQd8_0p_ctu1_0p_ctd1_0p_ctj1_1p_cQu1_0p_cQd1_0p'> +6.1065717e+01 </wgt>
<wgt id='ctGRe_0p_cQj18_0p_cQj38_1p_cQj11_0p_cjj31_0p_ctu8_0p_ctd8_0p_ctj8_0p_cQu8_0p_cQd8_0p_ctu1_0p_ctd1_0p_ctj1_0p_cQu1_1p_cQd1_0p'> +6.1138908e+01 </wgt>
<wgt id='ctGRe_0p_cQj18_0p_cQj38_1p_cQj11_0p_cjj31_0p_ctu8_0p_ctd8_0p_ctj8_0p_cQu8_0p_cQd8_0p_ctu1_0p_ctd1_0p_ctj1_0p_cQu1_0p_cQd1_1p'> +6.1138908e+01 </wgt>
<wgt id='ctGRe_0p_cQj18_0p_cQj38_0p_cQj11_2p_cjj31_0p_ctu8_0p_ctd8_0p_ctj8_0p_cQu8_0p_cQd8_0p_ctu1_0p_ctd1_0p_ctj1_0p_cQu1_0p_cQd1_0p'> +6.1471604e+01 </wgt>
<wgt id='ctGRe_0p_cQj18_0p_cQj38_0p_cQj11_1p_cjj31_1p_ctu8_0p_ctd8_0p_ctj8_0p_cQu8_0p_cQd8_0p_ctu1_0p_ctd1_0p_ctj1_0p_cQu1_0p_cQd1_0p'> +6.1303762e+01 </wgt>
<wgt id='ctGRe_0p_cQj18_0p_cQj38_0p_cQj11_1p_cjj31_0p_ctu8_1p_ctd8_0p_ctj8_0p_cQu8_0p_cQd8_0p_ctu1_0p_ctd1_0p_ctj1_0p_cQu1_0p_cQd1_0p'> +6.1303762e+01 </wgt>
<wgt id='ctGRe_0p_cQj18_0p_cQj38_0p_cQj11_1p_cjj31_0p_ctu8_0p_ctd8_1p_ctj8_0p_cQu8_0p_cQd8_0p_ctu1_0p_ctd1_0p_ctj1_0p_cQu1_0p_cQd1_0p'> +6.1303762e+01 </wgt>
<wgt id='ctGRe_0p_cQj18_0p_cQj38_0p_cQj11_1p_cjj31_0p_ctu8_0p_ctd8_0p_ctj8_1p_cQu8_0p_cQd8_0p_ctu1_0p_ctd1_0p_ctj1_0p_cQu1_0p_cQd1_0p'> +6.1455173e+01 </wgt>
<wgt id='ctGRe_0p_cQj18_0p_cQj38_0p_cQj11_1p_cjj31_0p_ctu8_0p_ctd8_0p_ctj8_0p_cQu8_1p_cQd8_0p_ctu1_0p_ctd1_0p_ctj1_0p_cQu1_0p_cQd1_0p'> +6.1303762e+01 </wgt>
<wgt id='ctGRe_0p_cQj18_0p_cQj38_0p_cQj11_1p_cjj31_0p_ctu8_0p_ctd8_0p_ctj8_0p_cQu8_0p_cQd8_1p_ctu1_0p_ctd1_0p_ctj1_0p_cQu1_0p_cQd1_0p'> +6.1303762e+01 </wgt>
<wgt id='ctGRe_0p_cQj18_0p_cQj38_0p_cQj11_1p_cjj31_0p_ctu8_0p_ctd8_0p_ctj8_0p_cQu8_0p_cQd8_0p_ctu1_1p_ctd1_0p_ctj1_0p_cQu1_0p_cQd1_0p'> +6.1303762e+01 </wgt>
<wgt id='ctGRe_0p_cQj18_0p_cQj38_0p_cQj11_1p_cjj31_0p_ctu8_0p_ctd8_0p_ctj8_0p_cQu8_0p_cQd8_0p_ctu1_0p_ctd1_1p_ctj1_0p_cQu1_0p_cQd1_0p'> +6.1303762e+01 </wgt>
<wgt id='ctGRe_0p_cQj18_0p_cQj38_0p_cQj11_1p_cjj31_0p_ctu8_0p_ctd8_0p_ctj8_0p_cQu8_0p_cQd8_0p_ctu1_0p_ctd1_0p_ctj1_1p_cQu1_0p_cQd1_0p'> +6.1227983e+01 </wgt>
<wgt id='ctGRe_0p_cQj18_0p_cQj38_0p_cQj11_1p_cjj31_0p_ctu8_0p_ctd8_0p_ctj8_0p_cQu8_0p_cQd8_0p_ctu1_0p_ctd1_0p_ctj1_0p_cQu1_1p_cQd1_0p'> +6.1303762e+01 </wgt>
<wgt id='ctGRe_0p_cQj18_0p_cQj38_0p_cQj11_1p_cjj31_0p_ctu8_0p_ctd8_0p_ctj8_0p_cQu8_0p_cQd8_0p_ctu1_0p_ctd1_0p_ctj1_0p_cQu1_0p_cQd1_1p'> +6.1303762e+01 </wgt>
<wgt id='ctGRe_0p_cQj18_0p_cQj38_0p_cQj11_0p_cjj31_2p_ctu8_0p_ctd8_0p_ctj8_0p_cQu8_0p_cQd8_0p_ctu1_0p_ctd1_0p_ctj1_0p_cQu1_0p_cQd1_0p'> +6.1139206e+01 </wgt>
<wgt id='ctGRe_0p_cQj18_0p_cQj38_0p_cQj11_0p_cjj31_1p_ctu8_1p_ctd8_0p_ctj8_0p_cQu8_0p_cQd8_0p_ctu1_0p_ctd1_0p_ctj1_0p_cQu1_0p_cQd1_0p'> +6.1139206e+01 </wgt>
<wgt id='ctGRe_0p_cQj18_0p_cQj38_0p_cQj11_0p_cjj31_1p_ctu8_0p_ctd8_1p_ctj8_0p_cQu8_0p_cQd8_0p_ctu1_0p_ctd1_0p_ctj1_0p_cQu1_0p_cQd1_0p'> +6.1139206e+01 </wgt>
<wgt id='ctGRe_0p_cQj18_0p_cQj38_0p_cQj11_0p_cjj31_1p_ctu8_0p_ctd8_0p_ctj8_1p_cQu8_0p_cQd8_0p_ctu1_0p_ctd1_0p_ctj1_0p_cQu1_0p_cQd1_0p'> +6.1290452e+01 </wgt>
<wgt id='ctGRe_0p_cQj18_0p_cQj38_0p_cQj11_0p_cjj31_1p_ctu8_0p_ctd8_0p_ctj8_0p_cQu8_1p_cQd8_0p_ctu1_0p_ctd1_0p_ctj1_0p_cQu1_0p_cQd1_0p'> +6.1139206e+01 </wgt>
<wgt id='ctGRe_0p_cQj18_0p_cQj38_0p_cQj11_0p_cjj31_1p_ctu8_0p_ctd8_0p_ctj8_0p_cQu8_0p_cQd8_1p_ctu1_0p_ctd1_0p_ctj1_0p_cQu1_0p_cQd1_0p'> +6.1139206e+01 </wgt>
<wgt id='ctGRe_0p_cQj18_0p_cQj38_0p_cQj11_0p_cjj31_1p_ctu8_0p_ctd8_0p_ctj8_0p_cQu8_0p_cQd8_0p_ctu1_1p_ctd1_0p_ctj1_0p_cQu1_0p_cQd1_0p'> +6.1139206e+01 </wgt>
<wgt id='ctGRe_0p_cQj18_0p_cQj38_0p_cQj11_0p_cjj31_1p_ctu8_0p_ctd8_0p_ctj8_0p_cQu8_0p_cQd8_0p_ctu1_0p_ctd1_1p_ctj1_0p_cQu1_0p_cQd1_0p'> +6.1139206e+01 </wgt>
<wgt id='ctGRe_0p_cQj18_0p_cQj38_0p_cQj11_0p_cjj31_1p_ctu8_0p_ctd8_0p_ctj8_0p_cQu8_0p_cQd8_0p_ctu1_0p_ctd1_0p_ctj1_1p_cQu1_0p_cQd1_0p'> +6.1066180e+01 </wgt>
<wgt id='ctGRe_0p_cQj18_0p_cQj38_0p_cQj11_0p_cjj31_1p_ctu8_0p_ctd8_0p_ctj8_0p_cQu8_0p_cQd8_0p_ctu1_0p_ctd1_0p_ctj1_0p_cQu1_1p_cQd1_0p'> +6.1139206e+01 </wgt>
<wgt id='ctGRe_0p_cQj18_0p_cQj38_0p_cQj11_0p_cjj31_1p_ctu8_0p_ctd8_0p_ctj8_0p_cQu8_0p_cQd8_0p_ctu1_0p_ctd1_0p_ctj1_0p_cQu1_0p_cQd1_1p'> +6.1139206e+01 </wgt>
<wgt id='ctGRe_0p_cQj18_0p_cQj38_0p_cQj11_0p_cjj31_0p_ctu8_2p_ctd8_0p_ctj8_0p_cQu8_0p_cQd8_0p_ctu1_0p_ctd1_0p_ctj1_0p_cQu1_0p_cQd1_0p'> +6.1139206e+01 </wgt>
<wgt id='ctGRe_0p_cQj18_0p_cQj38_0p_cQj11_0p_cjj31_0p_ctu8_1p_ctd8_1p_ctj8_0p_cQu8_0p_cQd8_0p_ctu1_0p_ctd1_0p_ctj1_0p_cQu1_0p_cQd1_0p'> +6.1139206e+01 </wgt>
<wgt id='ctGRe_0p_cQj18_0p_cQj38_0p_cQj11_0p_cjj31_0p_ctu8_1p_ctd8_0p_ctj8_1p_cQu8_0p_cQd8_0p_ctu1_0p_ctd1_0p_ctj1_0p_cQu1_0p_cQd1_0p'> +6.1290452e+01 </wgt>
<wgt id='ctGRe_0p_cQj18_0p_cQj38_0p_cQj11_0p_cjj31_0p_ctu8_1p_ctd8_0p_ctj8_0p_cQu8_1p_cQd8_0p_ctu1_0p_ctd1_0p_ctj1_0p_cQu1_0p_cQd1_0p'> +6.1139206e+01 </wgt>
<wgt id='ctGRe_0p_cQj18_0p_cQj38_0p_cQj11_0p_cjj31_0p_ctu8_1p_ctd8_0p_ctj8_0p_cQu8_0p_cQd8_1p_ctu1_0p_ctd1_0p_ctj1_0p_cQu1_0p_cQd1_0p'> +6.1139206e+01 </wgt>
<wgt id='ctGRe_0p_cQj18_0p_cQj38_0p_cQj11_0p_cjj31_0p_ctu8_1p_ctd8_0p_ctj8_0p_cQu8_0p_cQd8_0p_ctu1_1p_ctd1_0p_ctj1_0p_cQu1_0p_cQd1_0p'> +6.1139206e+01 </wgt>
<wgt id='ctGRe_0p_cQj18_0p_cQj38_0p_cQj11_0p_cjj31_0p_ctu8_1p_ctd8_0p_ctj8_0p_cQu8_0p_cQd8_0p_ctu1_0p_ctd1_1p_ctj1_0p_cQu1_0p_cQd1_0p'> +6.1139206e+01 </wgt>
<wgt id='ctGRe_0p_cQj18_0p_cQj38_0p_cQj11_0p_cjj31_0p_ctu8_1p_ctd8_0p_ctj8_0p_cQu8_0p_cQd8_0p_ctu1_0p_ctd1_0p_ctj1_1p_cQu1_0p_cQd1_0p'> +6.1066180e+01 </wgt>
<wgt id='ctGRe_0p_cQj18_0p_cQj38_0p_cQj11_0p_cjj31_0p_ctu8_1p_ctd8_0p_ctj8_0p_cQu8_0p_cQd8_0p_ctu1_0p_ctd1_0p_ctj1_0p_cQu1_1p_cQd1_0p'> +6.1139206e+01 </wgt>
<wgt id='ctGRe_0p_cQj18_0p_cQj38_0p_cQj11_0p_cjj31_0p_ctu8_1p_ctd8_0p_ctj8_0p_cQu8_0p_cQd8_0p_ctu1_0p_ctd1_0p_ctj1_0p_cQu1_0p_cQd1_1p'> +6.1139206e+01 </wgt>
<wgt id='ctGRe_0p_cQj18_0p_cQj38_0p_cQj11_0p_cjj31_0p_ctu8_0p_ctd8_2p_ctj8_0p_cQu8_0p_cQd8_0p_ctu1_0p_ctd1_0p_ctj1_0p_cQu1_0p_cQd1_0p'> +6.1139206e+01 </wgt>
<wgt id='ctGRe_0p_cQj18_0p_cQj38_0p_cQj11_0p_cjj31_0p_ctu8_0p_ctd8_1p_ctj8_1p_cQu8_0p_cQd8_0p_ctu1_0p_ctd1_0p_ctj1_0p_cQu1_0p_cQd1_0p'> +6.1290452e+01 </wgt>
<wgt id='ctGRe_0p_cQj18_0p_cQj38_0p_cQj11_0p_cjj31_0p_ctu8_0p_ctd8_1p_ctj8_0p_cQu8_1p_cQd8_0p_ctu1_0p_ctd1_0p_ctj1_0p_cQu1_0p_cQd1_0p'> +6.1139206e+01 </wgt>
<wgt id='ctGRe_0p_cQj18_0p_cQj38_0p_cQj11_0p_cjj31_0p_ctu8_0p_ctd8_1p_ctj8_0p_cQu8_0p_cQd8_1p_ctu1_0p_ctd1_0p_ctj1_0p_cQu1_0p_cQd1_0p'> +6.1139206e+01 </wgt>
<wgt id='ctGRe_0p_cQj18_0p_cQj38_0p_cQj11_0p_cjj31_0p_ctu8_0p_ctd8_1p_ctj8_0p_cQu8_0p_cQd8_0p_ctu1_1p_ctd1_0p_ctj1_0p_cQu1_0p_cQd1_0p'> +6.1139206e+01 </wgt>
<wgt id='ctGRe_0p_cQj18_0p_cQj38_0p_cQj11_0p_cjj31_0p_ctu8_0p_ctd8_1p_ctj8_0p_cQu8_0p_cQd8_0p_ctu1_0p_ctd1_1p_ctj1_0p_cQu1_0p_cQd1_0p'> +6.1139206e+01 </wgt>
<wgt id='ctGRe_0p_cQj18_0p_cQj38_0p_cQj11_0p_cjj31_0p_ctu8_0p_ctd8_1p_ctj8_0p_cQu8_0p_cQd8_0p_ctu1_0p_ctd1_0p_ctj1_1p_cQu1_0p_cQd1_0p'> +6.1066180e+01 </wgt>
<wgt id='ctGRe_0p_cQj18_0p_cQj38_0p_cQj11_0p_cjj31_0p_ctu8_0p_ctd8_1p_ctj8_0p_cQu8_0p_cQd8_0p_ctu1_0p_ctd1_0p_ctj1_0p_cQu1_1p_cQd1_0p'> +6.1139206e+01 </wgt>
<wgt id='ctGRe_0p_cQj18_0p_cQj38_0p_cQj11_0p_cjj31_0p_ctu8_0p_ctd8_1p_ctj8_0p_cQu8_0p_cQd8_0p_ctu1_0p_ctd1_0p_ctj1_0p_cQu1_0p_cQd1_1p'> +6.1139206e+01 </wgt>
<wgt id='ctGRe_0p_cQj18_0p_cQj38_0p_cQj11_0p_cjj31_0p_ctu8_0p_ctd8_0p_ctj8_2p_cQu8_0p_cQd8_0p_ctu1_0p_ctd1_0p_ctj1_0p_cQu1_0p_cQd1_0p'> +6.1442015e+01 </wgt>
<wgt id='ctGRe_0p_cQj18_0p_cQj38_0p_cQj11_0p_cjj31_0p_ctu8_0p_ctd8_0p_ctj8_1p_cQu8_1p_cQd8_0p_ctu1_0p_ctd1_0p_ctj1_0p_cQu1_0p_cQd1_0p'> +6.1290452e+01 </wgt>
<wgt id='ctGRe_0p_cQj18_0p_cQj38_0p_cQj11_0p_cjj31_0p_ctu8_0p_ctd8_0p_ctj8_1p_cQu8_0p_cQd8_1p_ctu1_0p_ctd1_0p_ctj1_0p_cQu1_0p_cQd1_0p'> +6.1290452e+01 </wgt>
<wgt id='ctGRe_0p_cQj18_0p_cQj38_0p_cQj11_0p_cjj31_0p_ctu8_0p_ctd8_0p_ctj8_1p_cQu8_0p_cQd8_0p_ctu1_1p_ctd1_0p_ctj1_0p_cQu1_0p_cQd1_0p'> +6.1290452e+01 </wgt>
<wgt id='ctGRe_0p_cQj18_0p_cQj38_0p_cQj11_0p_cjj31_0p_ctu8_0p_ctd8_0p_ctj8_1p_cQu8_0p_cQd8_0p_ctu1_0p_ctd1_1p_ctj1_0p_cQu1_0p_cQd1_0p'> +6.1290452e+01 </wgt>
<wgt id='ctGRe_0p_cQj18_0p_cQj38_0p_cQj11_0p_cjj31_0p_ctu8_0p_ctd8_0p_ctj8_1p_cQu8_0p_cQd8_0p_ctu1_0p_ctd1_0p_ctj1_1p_cQu1_0p_cQd1_0p'> +6.1217386e+01 </wgt>
<wgt id='ctGRe_0p_cQj18_0p_cQj38_0p_cQj11_0p_cjj31_0p_ctu8_0p_ctd8_0p_ctj8_1p_cQu8_0p_cQd8_0p_ctu1_0p_ctd1_0p_ctj1_0p_cQu1_1p_cQd1_0p'> +6.1290452e+01 </wgt>
<wgt id='ctGRe_0p_cQj18_0p_cQj38_0p_cQj11_0p_cjj31_0p_ctu8_0p_ctd8_0p_ctj8_1p_cQu8_0p_cQd8_0p_ctu1_0p_ctd1_0p_ctj1_0p_cQu1_0p_cQd1_1p'> +6.1290452e+01 </wgt>
<wgt id='ctGRe_0p_cQj18_0p_cQj38_0p_cQj11_0p_cjj31_0p_ctu8_0p_ctd8_0p_ctj8_0p_cQu8_2p_cQd8_0p_ctu1_0p_ctd1_0p_ctj1_0p_cQu1_0p_cQd1_0p'> +6.1139206e+01 </wgt>
<wgt id='ctGRe_0p_cQj18_0p_cQj38_0p_cQj11_0p_cjj31_0p_ctu8_0p_ctd8_0p_ctj8_0p_cQu8_1p_cQd8_1p_ctu1_0p_ctd1_0p_ctj1_0p_cQu1_0p_cQd1_0p'> +6.1139206e+01 </wgt>
<wgt id='ctGRe_0p_cQj18_0p_cQj38_0p_cQj11_0p_cjj31_0p_ctu8_0p_ctd8_0p_ctj8_0p_cQu8_1p_cQd8_0p_ctu1_1p_ctd1_0p_ctj1_0p_cQu1_0p_cQd1_0p'> +6.1139206e+01 </wgt>
<wgt id='ctGRe_0p_cQj18_0p_cQj38_0p_cQj11_0p_cjj31_0p_ctu8_0p_ctd8_0p_ctj8_0p_cQu8_1p_cQd8_0p_ctu1_0p_ctd1_1p_ctj1_0p_cQu1_0p_cQd1_0p'> +6.1139206e+01 </wgt>
<wgt id='ctGRe_0p_cQj18_0p_cQj38_0p_cQj11_0p_cjj31_0p_ctu8_0p_ctd8_0p_ctj8_0p_cQu8_1p_cQd8_0p_ctu1_0p_ctd1_0p_ctj1_1p_cQu1_0p_cQd1_0p'> +6.1066180e+01 </wgt>
<wgt id='ctGRe_0p_cQj18_0p_cQj38_0p_cQj11_0p_cjj31_0p_ctu8_0p_ctd8_0p_ctj8_0p_cQu8_1p_cQd8_0p_ctu1_0p_ctd1_0p_ctj1_0p_cQu1_1p_cQd1_0p'> +6.1139206e+01 </wgt>
<wgt id='ctGRe_0p_cQj18_0p_cQj38_0p_cQj11_0p_cjj31_0p_ctu8_0p_ctd8_0p_ctj8_0p_cQu8_1p_cQd8_0p_ctu1_0p_ctd1_0p_ctj1_0p_cQu1_0p_cQd1_1p'> +6.1139206e+01 </wgt>
<wgt id='ctGRe_0p_cQj18_0p_cQj38_0p_cQj11_0p_cjj31_0p_ctu8_0p_ctd8_0p_ctj8_0p_cQu8_0p_cQd8_2p_ctu1_0p_ctd1_0p_ctj1_0p_cQu1_0p_cQd1_0p'> +6.1139206e+01 </wgt>
<wgt id='ctGRe_0p_cQj18_0p_cQj38_0p_cQj11_0p_cjj31_0p_ctu8_0p_ctd8_0p_ctj8_0p_cQu8_0p_cQd8_1p_ctu1_1p_ctd1_0p_ctj1_0p_cQu1_0p_cQd1_0p'> +6.1139206e+01 </wgt>
<wgt id='ctGRe_0p_cQj18_0p_cQj38_0p_cQj11_0p_cjj31_0p_ctu8_0p_ctd8_0p_ctj8_0p_cQu8_0p_cQd8_1p_ctu1_0p_ctd1_1p_ctj1_0p_cQu1_0p_cQd1_0p'> +6.1139206e+01 </wgt>
<wgt id='ctGRe_0p_cQj18_0p_cQj38_0p_cQj11_0p_cjj31_0p_ctu8_0p_ctd8_0p_ctj8_0p_cQu8_0p_cQd8_1p_ctu1_0p_ctd1_0p_ctj1_1p_cQu1_0p_cQd1_0p'> +6.1066180e+01 </wgt>
<wgt id='ctGRe_0p_cQj18_0p_cQj38_0p_cQj11_0p_cjj31_0p_ctu8_0p_ctd8_0p_ctj8_0p_cQu8_0p_cQd8_1p_ctu1_0p_ctd1_0p_ctj1_0p_cQu1_1p_cQd1_0p'> +6.1139206e+01 </wgt>
<wgt id='ctGRe_0p_cQj18_0p_cQj38_0p_cQj11_0p_cjj31_0p_ctu8_0p_ctd8_0p_ctj8_0p_cQu8_0p_cQd8_1p_ctu1_0p_ctd1_0p_ctj1_0p_cQu1_0p_cQd1_1p'> +6.1139206e+01 </wgt>
<wgt id='ctGRe_0p_cQj18_0p_cQj38_0p_cQj11_0p_cjj31_0p_ctu8_0p_ctd8_0p_ctj8_0p_cQu8_0p_cQd8_0p_ctu1_2p_ctd1_0p_ctj1_0p_cQu1_0p_cQd1_0p'> +6.1139206e+01 </wgt>
<wgt id='ctGRe_0p_cQj18_0p_cQj38_0p_cQj11_0p_cjj31_0p_ctu8_0p_ctd8_0p_ctj8_0p_cQu8_0p_cQd8_0p_ctu1_1p_ctd1_1p_ctj1_0p_cQu1_0p_cQd1_0p'> +6.1139206e+01 </wgt>
<wgt id='ctGRe_0p_cQj18_0p_cQj38_0p_cQj11_0p_cjj31_0p_ctu8_0p_ctd8_0p_ctj8_0p_cQu8_0p_cQd8_0p_ctu1_1p_ctd1_0p_ctj1_1p_cQu1_0p_cQd1_0p'> +6.1066180e+01 </wgt>
<wgt id='ctGRe_0p_cQj18_0p_cQj38_0p_cQj11_0p_cjj31_0p_ctu8_0p_ctd8_0p_ctj8_0p_cQu8_0p_cQd8_0p_ctu1_1p_ctd1_0p_ctj1_0p_cQu1_1p_cQd1_0p'> +6.1139206e+01 </wgt>
<wgt id='ctGRe_0p_cQj18_0p_cQj38_0p_cQj11_0p_cjj31_0p_ctu8_0p_ctd8_0p_ctj8_0p_cQu8_0p_cQd8_0p_ctu1_1p_ctd1_0p_ctj1_0p_cQu1_0p_cQd1_1p'> +6.1139206e+01 </wgt>
<wgt id='ctGRe_0p_cQj18_0p_cQj38_0p_cQj11_0p_cjj31_0p_ctu8_0p_ctd8_0p_ctj8_0p_cQu8_0p_cQd8_0p_ctu1_0p_ctd1_2p_ctj1_0p_cQu1_0p_cQd1_0p'> +6.1139206e+01 </wgt>
<wgt id='ctGRe_0p_cQj18_0p_cQj38_0p_cQj11_0p_cjj31_0p_ctu8_0p_ctd8_0p_ctj8_0p_cQu8_0p_cQd8_0p_ctu1_0p_ctd1_1p_ctj1_1p_cQu1_0p_cQd1_0p'> +6.1066180e+01 </wgt>
<wgt id='ctGRe_0p_cQj18_0p_cQj38_0p_cQj11_0p_cjj31_0p_ctu8_0p_ctd8_0p_ctj8_0p_cQu8_0p_cQd8_0p_ctu1_0p_ctd1_1p_ctj1_0p_cQu1_1p_cQd1_0p'> +6.1139206e+01 </wgt>
<wgt id='ctGRe_0p_cQj18_0p_cQj38_0p_cQj11_0p_cjj31_0p_ctu8_0p_ctd8_0p_ctj8_0p_cQu8_0p_cQd8_0p_ctu1_0p_ctd1_1p_ctj1_0p_cQu1_0p_cQd1_1p'> +6.1139206e+01 </wgt>
<wgt id='ctGRe_0p_cQj18_0p_cQj38_0p_cQj11_0p_cjj31_0p_ctu8_0p_ctd8_0p_ctj8_0p_cQu8_0p_cQd8_0p_ctu1_0p_ctd1_0p_ctj1_2p_cQu1_0p_cQd1_0p'> +6.0995671e+01 </wgt>
<wgt id='ctGRe_0p_cQj18_0p_cQj38_0p_cQj11_0p_cjj31_0p_ctu8_0p_ctd8_0p_ctj8_0p_cQu8_0p_cQd8_0p_ctu1_0p_ctd1_0p_ctj1_1p_cQu1_1p_cQd1_0p'> +6.1066180e+01 </wgt>
<wgt id='ctGRe_0p_cQj18_0p_cQj38_0p_cQj11_0p_cjj31_0p_ctu8_0p_ctd8_0p_ctj8_0p_cQu8_0p_cQd8_0p_ctu1_0p_ctd1_0p_ctj1_1p_cQu1_0p_cQd1_1p'> +6.1066180e+01 </wgt>
<wgt id='ctGRe_0p_cQj18_0p_cQj38_0p_cQj11_0p_cjj31_0p_ctu8_0p_ctd8_0p_ctj8_0p_cQu8_0p_cQd8_0p_ctu1_0p_ctd1_0p_ctj1_0p_cQu1_2p_cQd1_0p'> +6.1139206e+01 </wgt>
<wgt id='ctGRe_0p_cQj18_0p_cQj38_0p_cQj11_0p_cjj31_0p_ctu8_0p_ctd8_0p_ctj8_0p_cQu8_0p_cQd8_0p_ctu1_0p_ctd1_0p_ctj1_0p_cQu1_1p_cQd1_1p'> +6.1139206e+01 </wgt>
<wgt id='ctGRe_0p_cQj18_0p_cQj38_0p_cQj11_0p_cjj31_0p_ctu8_0p_ctd8_0p_ctj8_0p_cQu8_0p_cQd8_0p_ctu1_0p_ctd1_0p_ctj1_0p_cQu1_0p_cQd1_2p'> +6.1139206e+01 </wgt>
<wgt id='1001'> +6.1139206e+01 </wgt>
<wgt id='1002'> +5.1293760e+01 </wgt>
<wgt id='1003'> +5.1290214e+01 </wgt>
<wgt id='1004'> +6.5306085e+01 </wgt>
<wgt id='1005'> +3.9146039e+01 </wgt>
<wgt id='1006'> +5.1440468e+01 </wgt>
<wgt id='1007'> +4.3618263e+01 </wgt>
<wgt id='1008'> +4.3615425e+01 </wgt>
<wgt id='1009'> +5.4711464e+01 </wgt>
<wgt id='1010'> +3.3786673e+01 </wgt>
<wgt id='1011'> +7.3921084e+01 </wgt>
<wgt id='1012'> +6.1226851e+01 </wgt>
<wgt id='1013'> +6.1222326e+01 </wgt>
<wgt id='1014'> +7.9370524e+01 </wgt>
<wgt id='1015'> +4.5910454e+01 </wgt>
<wgt id='1016'> +5.7315089e+01 </wgt>
<wgt id='1017'> +4.8091461e+01 </wgt>
<wgt id='1018'> +4.8088146e+01 </wgt>
<wgt id='1019'> +6.1222326e+01 </wgt>
<wgt id='1020'> +3.6753578e+01 </wgt>
<wgt id='1021'> +4.8222985e+01 </wgt>
<wgt id='1022'> +4.0895150e+01 </wgt>
<wgt id='1023'> +4.0892497e+01 </wgt>
<wgt id='1024'> +5.1290214e+01 </wgt>
<wgt id='1025'> +3.1721756e+01 </wgt>
<wgt id='1026'> +6.9297490e+01 </wgt>
<wgt id='1027'> +5.7404423e+01 </wgt>
<wgt id='1028'> +5.7400192e+01 </wgt>
<wgt id='1029'> +7.4407279e+01 </wgt>
<wgt id='1030'> +4.3104576e+01 </wgt>
<wgt id='1031'> +6.5188796e+01 </wgt>
<wgt id='1032'> +5.4715249e+01 </wgt>
<wgt id='1033'> +5.4711464e+01 </wgt>
<wgt id='1034'> +6.9594027e+01 </wgt>
<wgt id='1035'> +4.1745597e+01 </wgt>
<wgt id='1036'> +5.4847656e+01 </wgt>
<wgt id='1037'> +4.6527767e+01 </wgt>
<wgt id='1038'> +4.6524738e+01 </wgt>
<wgt id='1039'> +5.8303773e+01 </wgt>
<wgt id='1040'> +3.6030333e+01 </wgt>
<wgt id='1041'> +7.8817288e+01 </wgt>
<wgt id='1042'> +6.5310914e+01 </wgt>
<wgt id='1043'> +6.5306085e+01 </wgt>
<wgt id='1044'> +8.4581925e+01 </wgt>
<wgt id='1045'> +4.8959213e+01 </wgt>
<wgt id='1046'> +8.0255435e+01 </wgt>
<wgt id='1047'> +4.8806935e+01 </wgt>
<wgt id='1048'> +6.1139206e+01 </wgt>
<wgt id='1049'> +6.1305088e+01 </wgt>
<wgt id='1050'> +6.1067700e+01 </wgt>
<wgt id='1051'> +6.1474483e+01 </wgt>
<wgt id='1052'> +6.1685661e+01 </wgt>
<wgt id='1053'> +6.0972750e+01 </wgt>
<wgt id='1054'> +6.1253535e+01 </wgt>
<wgt id='1055'> +6.1338299e+01 </wgt>
<wgt id='1056'> +6.1171407e+01 </wgt>
<wgt id='1057'> +6.1281033e+01 </wgt>
<wgt id='1058'> +6.1445847e+01 </wgt>
<wgt id='1059'> +6.0969003e+01 </wgt>
<wgt id='1060'> +6.1238983e+01 </wgt>
<wgt id='1061'> +6.1145766e+01 </wgt>
<wgt id='1062'> +6.1023565e+01 </wgt>
<wgt id='1063'> +6.1173068e+01 </wgt>
<wgt id='1064'> +6.1885844e+01 </wgt>
<wgt id='1065'> +6.1320507e+01 </wgt>
<wgt id='1066'> +6.1173755e+01 </wgt>
<wgt id='1067'> +6.1213156e+01 </wgt>
<wgt id='1068'> +6.0603500e+01 </wgt>
<wgt id='1069'> +6.0815814e+01 </wgt>
<wgt id='1070'> +6.1010945e+01 </wgt>
<wgt id='1071'> +6.1423925e+01 </wgt>
<wgt id='1072'> +6.1046473e+01 </wgt>
<wgt id='1073'> +6.1338835e+01 </wgt>
<wgt id='1074'> +6.1132110e+01 </wgt>
<wgt id='1075'> +6.0941312e+01 </wgt>
<wgt id='1076'> +6.0875503e+01 </wgt>
<wgt id='1077'> +6.1091925e+01 </wgt>
<wgt id='1078'> +6.1403251e+01 </wgt>
<wgt id='1079'> +6.0740264e+01 </wgt>
<wgt id='1080'> +6.0523647e+01 </wgt>
<wgt id='1081'> +6.1087807e+01 </wgt>
<wgt id='1082'> +6.1125602e+01 </wgt>
<wgt id='1083'> +6.1471299e+01 </wgt>
<wgt id='1084'> +6.1307514e+01 </wgt>
<wgt id='1085'> +6.1084997e+01 </wgt>
<wgt id='1086'> +6.1427890e+01 </wgt>
<wgt id='1087'> +6.1026192e+01 </wgt>
<wgt id='1088'> +6.1181490e+01 </wgt>
<wgt id='1089'> +6.1341375e+01 </wgt>
<wgt id='1090'> +6.1432784e+01 </wgt>
<wgt id='1091'> +6.1087203e+01 </wgt>
<wgt id='1092'> +6.1031191e+01 </wgt>
<wgt id='1093'> +6.1363968e+01 </wgt>
<wgt id='1094'> +6.1115890e+01 </wgt>
<wgt id='1095'> +6.0880510e+01 </wgt>
<wgt id='1096'> +6.1091780e+01 </wgt>
<wgt id='1097'> +6.1092221e+01 </wgt>
<wgt id='1098'> +6.1017935e+01 </wgt>
<wgt id='1099'> +6.0890589e+01 </wgt>
<wgt id='1100'> +6.1061318e+01 </wgt>
<wgt id='1101'> +6.1416347e+01 </wgt>
<wgt id='1102'> +6.1425457e+01 </wgt>
<wgt id='1103'> +6.1265999e+01 </wgt>
<wgt id='1104'> +6.1174765e+01 </wgt>
<wgt id='1105'> +6.0932037e+01 </wgt>
<wgt id='1106'> +6.0955508e+01 </wgt>
<wgt id='1107'> +6.1312386e+01 </wgt>
<wgt id='1108'> +6.1075848e+01 </wgt>
<wgt id='1109'> +6.1689441e+01 </wgt>
<wgt id='1110'> +6.1140015e+01 </wgt>
<wgt id='1111'> +6.1230754e+01 </wgt>
<wgt id='1112'> +6.1288597e+01 </wgt>
<wgt id='1113'> +6.1406476e+01 </wgt>
<wgt id='1114'> +6.1843816e+01 </wgt>
<wgt id='1115'> +6.1116977e+01 </wgt>
<wgt id='1116'> +6.1087128e+01 </wgt>
<wgt id='1117'> +6.0953355e+01 </wgt>
<wgt id='1118'> +6.0903413e+01 </wgt>
<wgt id='1119'> +6.1045423e+01 </wgt>
<wgt id='1120'> +6.1320240e+01 </wgt>
<wgt id='1121'> +6.1139778e+01 </wgt>
<wgt id='1122'> +6.1131274e+01 </wgt>
<wgt id='1123'> +6.0802977e+01 </wgt>
<wgt id='1124'> +6.1357767e+01 </wgt>
<wgt id='1125'> +6.1417064e+01 </wgt>
<wgt id='1126'> +6.1254230e+01 </wgt>
<wgt id='1127'> +6.1016834e+01 </wgt>
<wgt id='1128'> +6.1074702e+01 </wgt>
<wgt id='1129'> +6.1425108e+01 </wgt>
<wgt id='1130'> +6.1339496e+01 </wgt>
<wgt id='1131'> +6.1221019e+01 </wgt>
<wgt id='1132'> +6.1152162e+01 </wgt>
<wgt id='1133'> +6.0923569e+01 </wgt>
<wgt id='1134'> +6.1270154e+01 </wgt>
<wgt id='1135'> +6.1332517e+01 </wgt>
<wgt id='1136'> +6.0879716e+01 </wgt>
<wgt id='1137'> +6.1025264e+01 </wgt>
<wgt id='1138'> +6.1070301e+01 </wgt>
<wgt id='1139'> +6.1255150e+01 </wgt>
<wgt id='1140'> +6.1045746e+01 </wgt>
<wgt id='1141'> +6.1042334e+01 </wgt>
<wgt id='1142'> +6.1272546e+01 </wgt>
<wgt id='1143'> +6.1181731e+01 </wgt>
<wgt id='1144'> +6.1092450e+01 </wgt>
<wgt id='1145'> +6.1146231e+01 </wgt>
<wgt id='1146'> +6.1109387e+01 </wgt>
<wgt id='1147'> +6.1031223e+01 </wgt>
<wgt id='1148'> +6.1139206e+01 </wgt>
<wgt id='1149'> +5.8120584e+01 </wgt>
<wgt id='1150'> +6.3934482e+01 </wgt>
<wgt id='1151'> +6.1139206e+01 </wgt>
<wgt id='1152'> +5.9254259e+01 </wgt>
<wgt id='1153'> +6.1221076e+01 </wgt>
<wgt id='1154'> +6.7062039e+01 </wgt>
<wgt id='1155'> +6.4015517e+01 </wgt>
<wgt id='1156'> +6.2858514e+01 </wgt>
<wgt id='1157'> +6.1539992e+01 </wgt>
<wgt id='1158'> +5.9299618e+01 </wgt>
<wgt id='1159'> +6.1121443e+01 </wgt>
<wgt id='1160'> +6.0808233e+01 </wgt>
<wgt id='1161'> +6.2254704e+01 </wgt>
<wgt id='1162'> +6.1373735e+01 </wgt>
<wgt id='1163'> +6.2795079e+01 </wgt>
<wgt id='1164'> +6.3020457e+01 </wgt>
<wgt id='1165'> +6.2885503e+01 </wgt>
<wgt id='1166'> +5.8931760e+01 </wgt>
<wgt id='1167'> +6.1829630e+01 </wgt>
<wgt id='1168'> +6.2407705e+01 </wgt>
<wgt id='1169'> +6.0075002e+01 </wgt>
<wgt id='1170'> +6.1616023e+01 </wgt>
<wgt id='1171'> +6.2093894e+01 </wgt>
<wgt id='1172'> +6.2374141e+01 </wgt>
<wgt id='1173'> +6.1619092e+01 </wgt>
<wgt id='1174'> +5.6911829e+01 </wgt>
<wgt id='1175'> +6.2138498e+01 </wgt>
<wgt id='1176'> +5.8020537e+01 </wgt>
<wgt id='1177'> +6.4221965e+01 </wgt>
<wgt id='1178'> +5.8769977e+01 </wgt>
<wgt id='1179'> +6.3579008e+01 </wgt>
<wgt id='1180'> +6.0572878e+01 </wgt>
<wgt id='1181'> +6.2012513e+01 </wgt>
<wgt id='1182'> +6.1035266e+01 </wgt>
<wgt id='1183'> +6.2497303e+01 </wgt>
<wgt id='1184'> +5.9102414e+01 </wgt>
<wgt id='1185'> +6.4138766e+01 </wgt>
<wgt id='1186'> +6.1064202e+01 </wgt>
<wgt id='1187'> +6.2180927e+01 </wgt>
<wgt id='1188'> +5.9967486e+01 </wgt>
<wgt id='1189'> +6.0603420e+01 </wgt>
<wgt id='1190'> +6.1959691e+01 </wgt>
<wgt id='1191'> +5.9958198e+01 </wgt>
<wgt id='1192'> +6.2865556e+01 </wgt>
<wgt id='1193'> +6.1737587e+01 </wgt>
<wgt id='1194'> +6.4458187e+01 </wgt>
<wgt id='1195'> +5.8143083e+01 </wgt>
<wgt id='1196'> +5.9872515e+01 </wgt>
<wgt id='1197'> +6.0587046e+01 </wgt>
<wgt id='1198'> +6.2102683e+01 </wgt>
<wgt id='1199'> +6.2790654e+01 </wgt>
<wgt id='1200'> +5.9123324e+01 </wgt>
<wgt id='1201'> +5.8963853e+01 </wgt>
<wgt id='1202'> +6.4194128e+01 </wgt>
<wgt id='1203'> +5.7809696e+01 </wgt>
<wgt id='1204'> +6.1078994e+01 </wgt>
<wgt id='1205'> +5.9856448e+01 </wgt>
<wgt id='1206'> +6.1524693e+01 </wgt>
<wgt id='1207'> +6.0693567e+01 </wgt>
<wgt id='1208'> +5.8355184e+01 </wgt>
<wgt id='1209'> +6.0272859e+01 </wgt>
<wgt id='1210'> +6.0231455e+01 </wgt>
<wgt id='1211'> +5.9146214e+01 </wgt>
<wgt id='1212'> +5.8914344e+01 </wgt>
<wgt id='1213'> +6.2721102e+01 </wgt>
<wgt id='1214'> +6.0680215e+01 </wgt>
<wgt id='1215'> +6.3180984e+01 </wgt>
<wgt id='1216'> +5.7646294e+01 </wgt>
<wgt id='1217'> +6.2801258e+01 </wgt>
<wgt id='1218'> +5.9190767e+01 </wgt>
<wgt id='1219'> +6.2991009e+01 </wgt>
<wgt id='1220'> +5.9507189e+01 </wgt>
<wgt id='1221'> +6.1029172e+01 </wgt>
<wgt id='1222'> +6.3917088e+01 </wgt>
<wgt id='1223'> +6.5017188e+01 </wgt>
<wgt id='1224'> +5.8671494e+01 </wgt>
<wgt id='1225'> +5.9585012e+01 </wgt>
<wgt id='1226'> +6.8550283e+01 </wgt>
<wgt id='1227'> +6.4312828e+01 </wgt>
<wgt id='1228'> +5.7227937e+01 </wgt>
<wgt id='1229'> +5.7220415e+01 </wgt>
<wgt id='1230'> +6.3186759e+01 </wgt>
<wgt id='1231'> +6.3903748e+01 </wgt>
<wgt id='1232'> +5.9388185e+01 </wgt>
<wgt id='1233'> +6.1829630e+01 </wgt>
<wgt id='1234'> +5.7735403e+01 </wgt>
<wgt id='1235'> +6.3139818e+01 </wgt>
<wgt id='1236'> +6.1125910e+01 </wgt>
<wgt id='1237'> +6.3982544e+01 </wgt>
<wgt id='1238'> +6.1166633e+01 </wgt>
<wgt id='1239'> +6.1318948e+01 </wgt>
<wgt id='1240'> +6.1424210e+01 </wgt>
<wgt id='1241'> +5.9062872e+01 </wgt>
<wgt id='1242'> +5.7596588e+01 </wgt>
<wgt id='1243'> +5.7709979e+01 </wgt>
<wgt id='1244'> +6.2557392e+01 </wgt>
<wgt id='1245'> +5.8708050e+01 </wgt>
<wgt id='1246'> +5.8500601e+01 </wgt>
<wgt id='1247'> +5.8957372e+01 </wgt>
<wgt id='1248'> +6.1291515e+01 </wgt>
<wgt id='1249'> +6.5966634e+01 </wgt>
<wgt id='1250'> +6.3314017e+01 </wgt>
<wgt id='1251'> +5.7587449e+01 </wgt>
<wgt id='1252'> +6.1308380e+01 </wgt>
<wgt id='1253'> +6.1226266e+01 </wgt>
<wgt id='1254'> +6.1575001e+01 </wgt>
<wgt id='1255'> +6.1392800e+01 </wgt>
<wgt id='1256'> +6.1408889e+01 </wgt>
<wgt id='1257'> +6.1239518e+01 </wgt>
<wgt id='1258'> +6.1273142e+01 </wgt>
<wgt id='1259'> +6.1187875e+01 </wgt>
<wgt id='1260'> +6.1371355e+01 </wgt>
<wgt id='1261'> +6.1678968e+01 </wgt>
<wgt id='1262'> +6.1398140e+01 </wgt>
<wgt id='1263'> +6.1433021e+01 </wgt>
<wgt id='1264'> +6.1183884e+01 </wgt>
<wgt id='1265'> +6.1311848e+01 </wgt>
<wgt id='1266'> +6.1397534e+01 </wgt>
<wgt id='1267'> +6.0964062e+01 </wgt>
<wgt id='1268'> +6.1214408e+01 </wgt>
<wgt id='1269'> +6.1437258e+01 </wgt>
<wgt id='1270'> +6.1400372e+01 </wgt>
<wgt id='1271'> +6.1622279e+01 </wgt>
<wgt id='1272'> +6.1567167e+01 </wgt>
<wgt id='1273'> +6.1044796e+01 </wgt>
<wgt id='1274'> +6.1331733e+01 </wgt>
<wgt id='1275'> +6.1676686e+01 </wgt>
<wgt id='1276'> +6.0974204e+01 </wgt>
<wgt id='1277'> +6.1437000e+01 </wgt>
<wgt id='1278'> +6.1260162e+01 </wgt>
<wgt id='1279'> +6.0871825e+01 </wgt>
<wgt id='1280'> +6.1108204e+01 </wgt>
<wgt id='1281'> +6.1627462e+01 </wgt>
<wgt id='1282'> +6.1652830e+01 </wgt>
<wgt id='1283'> +6.1319468e+01 </wgt>
<wgt id='1284'> +6.1365083e+01 </wgt>
<wgt id='1285'> +6.1134195e+01 </wgt>
<wgt id='1286'> +6.1130571e+01 </wgt>
<wgt id='1287'> +6.1543003e+01 </wgt>
<wgt id='1288'> +6.1614319e+01 </wgt>
<wgt id='1289'> +6.1295523e+01 </wgt>
<wgt id='1290'> +6.1326404e+01 </wgt>
<wgt id='1291'> +6.1254673e+01 </wgt>
<wgt id='1292'> +6.1377805e+01 </wgt>
<wgt id='1293'> +6.1592131e+01 </wgt>
<wgt id='1294'> +6.1455148e+01 </wgt>
<wgt id='1295'> +6.1058681e+01 </wgt>
<wgt id='1296'> +6.1526153e+01 </wgt>
<wgt id='1297'> +6.1086167e+01 </wgt>
<wgt id='1298'> +6.1562287e+01 </wgt>
<wgt id='1299'> +6.1417402e+01 </wgt>
<wgt id='1300'> +6.1402058e+01 </wgt>
<wgt id='1301'> +6.1332567e+01 </wgt>
<wgt id='1302'> +6.1142691e+01 </wgt>
<wgt id='1303'> +6.1370310e+01 </wgt>
<wgt id='1304'> +6.0955119e+01 </wgt>
<wgt id='1305'> +6.1159848e+01 </wgt>
<wgt id='1306'> +6.1232340e+01 </wgt>
<wgt id='1307'> +6.1321692e+01 </wgt>
<wgt id='1308'> +6.1636435e+01 </wgt>
<wgt id='1309'> +6.1261101e+01 </wgt>
<wgt id='1310'> +6.1606702e+01 </wgt>
<wgt id='1311'> +6.1079765e+01 </wgt>
<wgt id='1312'> +6.1189095e+01 </wgt>
<wgt id='1313'> +6.1164537e+01 </wgt>
<wgt id='1314'> +6.1260624e+01 </wgt>
<wgt id='1315'> +6.1305303e+01 </wgt>
<wgt id='1316'> +6.1341056e+01 </wgt>
<wgt id='1317'> +6.1262141e+01 </wgt>
<wgt id='1318'> +6.1088683e+01 </wgt>
<wgt id='1319'> +6.1299861e+01 </wgt>
<wgt id='1320'> +6.1152960e+01 </wgt>
<wgt id='1321'> +6.1421466e+01 </wgt>
<wgt id='1322'> +6.1130235e+01 </wgt>
<wgt id='1323'> +6.1546205e+01 </wgt>
<wgt id='1324'> +6.1480243e+01 </wgt>
<wgt id='1325'> +6.1781604e+01 </wgt>
<wgt id='1326'> +6.1147186e+01 </wgt>
<wgt id='1327'> +6.1348812e+01 </wgt>
<wgt id='1328'> +6.1789178e+01 </wgt>
<wgt id='1329'> +6.1322469e+01 </wgt>
<wgt id='1330'> +6.1545933e+01 </wgt>
<wgt id='1331'> +6.1106289e+01 </wgt>
<wgt id='1332'> +6.1268533e+01 </wgt>
<wgt id='1333'> +6.0904108e+01 </wgt>
<wgt id='1334'> +6.1297952e+01 </wgt>
<wgt id='1335'> +6.1472773e+01 </wgt>
<wgt id='1336'> +6.1494699e+01 </wgt>
<wgt id='1337'> +6.1340429e+01 </wgt>
<wgt id='1338'> +6.1121613e+01 </wgt>
<wgt id='1339'> +6.1233409e+01 </wgt>
<wgt id='1340'> +6.1558698e+01 </wgt>
<wgt id='1341'> +6.1539947e+01 </wgt>
<wgt id='1342'> +6.1441548e+01 </wgt>
<wgt id='1343'> +6.1405514e+01 </wgt>
<wgt id='1344'> +6.1652527e+01 </wgt>
<wgt id='1345'> +6.1063753e+01 </wgt>
<wgt id='1346'> +6.1169640e+01 </wgt>
<wgt id='1347'> +6.1231662e+01 </wgt>
<wgt id='1348'> +6.1197855e+01 </wgt>
<wgt id='1349'> +6.1338345e+01 </wgt>
<wgt id='1350'> +6.1081940e+01 </wgt>
<wgt id='1351'> +6.1139188e+01 </wgt>
<wgt id='1352'> +6.1247431e+01 </wgt>
<wgt id='1353'> +5.8120584e+01 </wgt>
<wgt id='1354'> +6.3934482e+01 </wgt>
<wgt id='1355'> +4.8180855e+01 </wgt>
<wgt id='1356'> +5.1155923e+01 </wgt>
<wgt id='1357'> +5.3117086e+01 </wgt>
<wgt id='1358'> +5.5667739e+01 </wgt>
<wgt id='1359'> +5.9369568e+01 </wgt>
<wgt id='1360'> +6.3025637e+01 </wgt>
<wgt id='1361'> +6.6291694e+01 </wgt>
<wgt id='1362'> +6.9638204e+01 </wgt>
<wgt id='1363'> +6.3533890e+01 </wgt>
<wgt id='1364'> +6.3703877e+01 </wgt>
<wgt id='1365'> +6.3293677e+01 </wgt>
<wgt id='1366'> +6.3643813e+01 </wgt>
<wgt id='1367'> +6.3834205e+01 </wgt>
<wgt id='1368'> +6.3431805e+01 </wgt>
<wgt id='1369'> +6.3751158e+01 </wgt>
<wgt id='1370'> +6.3454708e+01 </wgt>
<wgt id='1371'> +6.3130737e+01 </wgt>
<wgt id='1372'> +6.3595317e+01 </wgt>
<wgt id='1373'> +6.3405004e+01 </wgt>
<wgt id='1374'> +6.3546061e+01 </wgt>
<wgt id='1375'> +6.3472888e+01 </wgt>
<wgt id='1376'> +6.3416695e+01 </wgt>
<wgt id='1377'> +6.3678504e+01 </wgt>
<wgt id='1378'> +6.3432923e+01 </wgt>
<wgt id='1379'> +6.3049707e+01 </wgt>
<wgt id='1380'> +6.3678800e+01 </wgt>
<wgt id='1381'> +6.3463951e+01 </wgt>
<wgt id='1382'> +6.3478653e+01 </wgt>
<wgt id='1383'> +6.3601961e+01 </wgt>
<wgt id='1384'> +6.3111282e+01 </wgt>
<wgt id='1385'> +6.3413659e+01 </wgt>
<wgt id='1386'> +6.3633681e+01 </wgt>
<wgt id='1387'> +6.3167966e+01 </wgt>
<wgt id='1388'> +6.3671963e+01 </wgt>
<wgt id='1389'> +6.3626238e+01 </wgt>
<wgt id='1390'> +6.3692933e+01 </wgt>
<wgt id='1391'> +6.3169129e+01 </wgt>
<wgt id='1392'> +6.3654593e+01 </wgt>
<wgt id='1393'> +6.4451256e+01 </wgt>
<wgt id='1394'> +6.3485155e+01 </wgt>
<wgt id='1395'> +6.3539105e+01 </wgt>
<wgt id='1396'> +6.3198851e+01 </wgt>
<wgt id='1397'> +6.3752887e+01 </wgt>
<wgt id='1398'> +6.3277423e+01 </wgt>
<wgt id='1399'> +6.3465473e+01 </wgt>
<wgt id='1400'> +6.3628188e+01 </wgt>
<wgt id='1401'> +6.3646333e+01 </wgt>
<wgt id='1402'> +6.3390282e+01 </wgt>
<wgt id='1403'> +6.3499326e+01 </wgt>
<wgt id='1404'> +6.3446611e+01 </wgt>
<wgt id='1405'> +6.3379640e+01 </wgt>
<wgt id='1406'> +6.3564449e+01 </wgt>
<wgt id='1407'> +6.3491232e+01 </wgt>
<wgt id='1408'> +6.3430676e+01 </wgt>
<wgt id='1409'> +6.3506671e+01 </wgt>
<wgt id='1410'> +6.3681967e+01 </wgt>
<wgt id='1411'> +6.3343426e+01 </wgt>
<wgt id='1412'> +6.3589082e+01 </wgt>
<wgt id='1413'> +6.3836421e+01 </wgt>
<wgt id='1414'> +6.3714235e+01 </wgt>
<wgt id='1415'> +6.3462973e+01 </wgt>
<wgt id='1416'> +6.3212346e+01 </wgt>
<wgt id='1417'> +6.3309208e+01 </wgt>
<wgt id='1418'> +6.3620025e+01 </wgt>
<wgt id='1419'> +6.3392713e+01 </wgt>
<wgt id='1420'> +6.3353846e+01 </wgt>
<wgt id='1421'> +6.2802716e+01 </wgt>
<wgt id='1422'> +6.3338821e+01 </wgt>
<wgt id='1423'> +6.3543680e+01 </wgt>
<wgt id='1424'> +6.3620371e+01 </wgt>
<wgt id='1425'> +6.3788440e+01 </wgt>
<wgt id='1426'> +6.3786862e+01 </wgt>
<wgt id='1427'> +6.3735341e+01 </wgt>
<wgt id='1428'> +6.3487217e+01 </wgt>
<wgt id='1429'> +6.3628357e+01 </wgt>
<wgt id='1430'> +6.3914449e+01 </wgt>
<wgt id='1431'> +6.3837622e+01 </wgt>
<wgt id='1432'> +6.3579695e+01 </wgt>
<wgt id='1433'> +6.3768197e+01 </wgt>
<wgt id='1434'> +6.3480157e+01 </wgt>
<wgt id='1435'> +6.3759469e+01 </wgt>
<wgt id='1436'> +6.3603298e+01 </wgt>
<wgt id='1437'> +6.3309068e+01 </wgt>
<wgt id='1438'> +6.2985854e+01 </wgt>
<wgt id='1439'> +6.3654702e+01 </wgt>
<wgt id='1440'> +6.3334417e+01 </wgt>
<wgt id='1441'> +6.3475660e+01 </wgt>
<wgt id='1442'> +6.3116754e+01 </wgt>
<wgt id='1443'> +6.3514839e+01 </wgt>
<wgt id='1444'> +6.3633401e+01 </wgt>
<wgt id='1445'> +6.3641711e+01 </wgt>
<wgt id='1446'> +6.3562814e+01 </wgt>
<wgt id='1447'> +6.3247666e+01 </wgt>
<wgt id='1448'> +6.3592146e+01 </wgt>
<wgt id='1449'> +6.3466928e+01 </wgt>
<wgt id='1450'> +6.3787254e+01 </wgt>
<wgt id='1451'> +6.3566290e+01 </wgt>
<wgt id='1452'> +6.3919320e+01 </wgt>
<wgt id='1453'> +6.3388790e+01 </wgt>
<wgt id='1454'> +6.3734816e+01 </wgt>
<wgt id='1455'> +6.3474348e+01 </wgt>
<wgt id='1456'> +6.3142410e+01 </wgt>
<wgt id='1457'> +6.3379660e+01 </wgt>
<wgt id='1458'> +6.3797161e+01 </wgt>
<wgt id='1459'> +6.3277625e+01 </wgt>
<wgt id='1460'> +6.3377547e+01 </wgt>
<wgt id='1461'> +6.3584190e+01 </wgt>
<wgt id='1462'> +6.3725990e+01 </wgt>
<wgt id='1463'> +6.3540919e+01 </wgt>
<wgt id='1464'> +6.1177575e+01 </wgt>
<wgt id='1465'> +6.6676514e+01 </wgt>
<wgt id='1466'> +5.7831053e+01 </wgt>
<wgt id='1467'> +5.7929697e+01 </wgt>
<wgt id='1468'> +5.7386046e+01 </wgt>
<wgt id='1469'> +5.7355306e+01 </wgt>
<wgt id='1470'> +5.7980785e+01 </wgt>
<wgt id='1471'> +5.6994031e+01 </wgt>
<wgt id='1472'> +5.6645898e+01 </wgt>
<wgt id='1473'> +5.7345030e+01 </wgt>
<wgt id='1474'> +5.7329042e+01 </wgt>
<wgt id='1475'> +5.5653372e+01 </wgt>
<wgt id='1476'> +5.9080014e+01 </wgt>
<wgt id='1477'> +5.9250651e+01 </wgt>
<wgt id='1478'> +5.6207579e+01 </wgt>
<wgt id='1479'> +5.8024263e+01 </wgt>
<wgt id='1480'> +5.9662556e+01 </wgt>
<wgt id='1481'> +5.8042719e+01 </wgt>
<wgt id='1482'> +5.7177462e+01 </wgt>
<wgt id='1483'> +5.7925092e+01 </wgt>
<wgt id='1484'> +5.7708063e+01 </wgt>
<wgt id='1485'> +5.9031458e+01 </wgt>
<wgt id='1486'> +5.6734676e+01 </wgt>
<wgt id='1487'> +6.0659331e+01 </wgt>
<wgt id='1488'> +5.6155805e+01 </wgt>
<wgt id='1489'> +5.7360415e+01 </wgt>
<wgt id='1490'> +5.8394666e+01 </wgt>
<wgt id='1491'> +5.8852342e+01 </wgt>
<wgt id='1492'> +5.7005974e+01 </wgt>
<wgt id='1493'> +5.7245517e+01 </wgt>
<wgt id='1494'> +5.8814268e+01 </wgt>
<wgt id='1495'> +5.6588252e+01 </wgt>
<wgt id='1496'> +5.8686210e+01 </wgt>
<wgt id='1497'> +5.7299904e+01 </wgt>
<wgt id='1498'> +5.8655615e+01 </wgt>
<wgt id='1499'> +5.6367179e+01 </wgt>
<wgt id='1500'> +5.9324520e+01 </wgt>
<wgt id='1501'> +6.0322224e+01 </wgt>
<wgt id='1502'> +5.5886907e+01 </wgt>
<wgt id='1503'> +5.5199667e+01 </wgt>
<wgt id='1504'> +6.0877323e+01 </wgt>
<wgt id='1505'> +5.8650223e+01 </wgt>
<wgt id='1506'> +5.7046024e+01 </wgt>
<wgt id='1507'> +6.0151087e+01 </wgt>
<wgt id='1508'> +5.6022745e+01 </wgt>
<wgt id='1509'> +5.7890622e+01 </wgt>
<wgt id='1510'> +5.8328021e+01 </wgt>
<wgt id='1511'> +5.7053319e+01 </wgt>
<wgt id='1512'> +5.6814828e+01 </wgt>
<wgt id='1513'> +5.9930683e+01 </wgt>
<wgt id='1514'> +5.5483134e+01 </wgt>
<wgt id='1515'> +5.7959518e+01 </wgt>
<wgt id='1516'> +5.7694762e+01 </wgt>
<wgt id='1517'> +5.9192176e+01 </wgt>
<wgt id='1518'> +5.6510444e+01 </wgt>
<wgt id='1519'> +5.7077451e+01 </wgt>
<wgt id='1520'> +5.7101913e+01 </wgt>
<wgt id='1521'> +5.6750418e+01 </wgt>
<wgt id='1522'> +5.8722343e+01 </wgt>
<wgt id='1523'> +5.5057110e+01 </wgt>
<wgt id='1524'> +6.0694540e+01 </wgt>
<wgt id='1525'> +5.8141504e+01 </wgt>
<wgt id='1526'> +5.7335518e+01 </wgt>
<wgt id='1527'> +6.0044322e+01 </wgt>
<wgt id='1528'> +5.6313211e+01 </wgt>
<wgt id='1529'> +5.7826119e+01 </wgt>
<wgt id='1530'> +5.8573616e+01 </wgt>
<wgt id='1531'> +5.8037142e+01 </wgt>
<wgt id='1532'> +5.9261829e+01 </wgt>
<wgt id='1533'> +5.4646528e+01 </wgt>
<wgt id='1534'> +5.7494068e+01 </wgt>
<wgt id='1535'> +5.9109545e+01 </wgt>
<wgt id='1536'> +5.8956125e+01 </wgt>
<wgt id='1537'> +5.7145637e+01 </wgt>
<wgt id='1538'> +6.0654324e+01 </wgt>
<wgt id='1539'> +5.6302642e+01 </wgt>
<wgt id='1540'> +6.0078860e+01 </wgt>
<wgt id='1541'> +5.6494318e+01 </wgt>
<wgt id='1542'> +5.6548363e+01 </wgt>
<wgt id='1543'> +5.9939397e+01 </wgt>
<wgt id='1544'> +5.8740406e+01 </wgt>
<wgt id='1545'> +5.7664158e+01 </wgt>
<wgt id='1546'> +5.8445999e+01 </wgt>
<wgt id='1547'> +5.7765504e+01 </wgt>
<wgt id='1548'> +5.6120404e+01 </wgt>
<wgt id='1549'> +6.0203098e+01 </wgt>
<wgt id='1550'> +6.0065162e+01 </wgt>
<wgt id='1551'> +5.6408703e+01 </wgt>
<wgt id='1552'> +5.7431079e+01 </wgt>
<wgt id='1553'> +5.9189358e+01 </wgt>
<wgt id='1554'> +5.9100888e+01 </wgt>
<wgt id='1555'> +5.7809204e+01 </wgt>
<wgt id='1556'> +5.7113477e+01 </wgt>
<wgt id='1557'> +5.9504817e+01 </wgt>
<wgt id='1558'> +5.6890191e+01 </wgt>
<wgt id='1559'> +6.1027470e+01 </wgt>
<wgt id='1560'> +5.9924959e+01 </wgt>
<wgt id='1561'> +5.6309190e+01 </wgt>
<wgt id='1562'> +5.7703091e+01 </wgt>
<wgt id='1563'> +5.8828916e+01 </wgt>
<wgt id='1564'> +5.6463353e+01 </wgt>
<wgt id='1565'> +5.9462766e+01 </wgt>
<wgt id='1566'> +5.8070815e+01 </wgt>
<wgt id='1567'> +5.8210564e+01 </wgt>
<wgt id='1568'> +5.8359419e+01 </wgt>
<wgt id='1569'> +5.8416890e+01 </wgt>
<wgt id='1570'> +5.8346952e+01 </wgt>
<wgt id='1571'> +5.9130070e+01 </wgt>
<wgt id='1572'> +5.9176091e+01 </wgt>
<wgt id='1573'> +5.5887545e+01 </wgt>
<wgt id='1574'> +5.7889662e+01 </wgt>
<wgt id='1575'> +5.6976894e+01 </wgt>
<wgt id='1576'> +5.7735754e+01 </wgt>
<wgt id='1577'> +5.8359626e+01 </wgt>
<wgt id='1578'> +5.6713129e+01 </wgt>
<wgt id='1579'> +5.9083801e+01 </wgt>
<wgt id='1580'> +5.6911973e+01 </wgt>
<wgt id='1581'> +5.8835152e+01 </wgt>
<wgt id='1582'> +5.5429273e+01 </wgt>
<wgt id='1583'> +6.1003518e+01 </wgt>
<wgt id='1584'> +5.5032784e+01 </wgt>
<wgt id='1585'> +6.8075299e+01 </wgt>
<wgt id='1586'> +6.8236177e+01 </wgt>
<wgt id='1587'> +6.7903529e+01 </wgt>
<wgt id='1588'> +6.8562264e+01 </wgt>
<wgt id='1589'> +6.7757382e+01 </wgt>
<wgt id='1590'> +6.8660240e+01 </wgt>
<wgt id='1591'> +6.7532362e+01 </wgt>
<wgt id='1592'> +6.7667567e+01 </wgt>
<wgt id='1593'> +6.8543432e+01 </wgt>
<wgt id='1594'> +6.8025690e+01 </wgt>
<wgt id='1595'> +6.8125067e+01 </wgt>
<wgt id='1596'> +6.8091903e+01 </wgt>
<wgt id='1597'> +6.8042485e+01 </wgt>
<wgt id='1598'> +6.8386817e+01 </wgt>
<wgt id='1599'> +6.7521726e+01 </wgt>
<wgt id='1600'> +6.7388975e+01 </wgt>
<wgt id='1601'> +6.8464716e+01 </wgt>
<wgt id='1602'> +6.7729492e+01 </wgt>
<wgt id='1603'> +6.8483125e+01 </wgt>
<wgt id='1604'> +6.7888914e+01 </wgt>
<wgt id='1605'> +6.8235273e+01 </wgt>
<wgt id='1606'> +6.7536680e+01 </wgt>
<wgt id='1607'> +6.8791809e+01 </wgt>
<wgt id='1608'> +6.6883149e+01 </wgt>
<wgt id='1609'> +6.8869648e+01 </wgt>
<wgt id='1610'> +6.7769103e+01 </wgt>
<wgt id='1611'> +6.8426418e+01 </wgt>
<wgt id='1612'> +6.8029848e+01 </wgt>
<wgt id='1613'> +6.8095521e+01 </wgt>
<wgt id='1614'> +6.7366750e+01 </wgt>
<wgt id='1615'> +6.8890409e+01 </wgt>
<wgt id='1616'> +6.7125255e+01 </wgt>
<wgt id='1617'> +6.9071150e+01 </wgt>
<wgt id='1618'> +6.6979019e+01 </wgt>
<wgt id='1619'> +6.8974941e+01 </wgt>
<wgt id='1620'> +6.8060011e+01 </wgt>
<wgt id='1621'> +6.8087637e+01 </wgt>
<wgt id='1622'> +6.7946495e+01 </wgt>
<wgt id='1623'> +6.8178597e+01 </wgt>
<wgt id='1624'> +6.7695200e+01 </wgt>
<wgt id='1625'> +6.8451585e+01 </wgt>
<wgt id='1626'> +6.7787015e+01 </wgt>
<wgt id='1627'> +6.8627674e+01 </wgt>
<wgt id='1628'> +6.7928199e+01 </wgt>
<wgt id='1629'> +6.8268472e+01 </wgt>
<wgt id='1630'> +6.8126954e+01 </wgt>
<wgt id='1631'> +6.7969776e+01 </wgt>
<wgt id='1632'> +6.8986594e+01 </wgt>
<wgt id='1633'> +6.6803823e+01 </wgt>
<wgt id='1634'> +6.7661950e+01 </wgt>
<wgt id='1635'> +6.7930564e+01 </wgt>
<wgt id='1636'> +6.5063257e+01 </wgt>
<wgt id='1637'> +6.5148850e+01 </wgt>
<wgt id='1638'> +6.4959209e+01 </wgt>
<wgt id='1639'> +6.5235380e+01 </wgt>
<wgt id='1640'> +6.4895603e+01 </wgt>
<wgt id='1641'> +6.5896012e+01 </wgt>
<wgt id='1642'> +6.4734466e+01 </wgt>
<wgt id='1643'> +6.4921561e+01 </wgt>
<wgt id='1644'> +6.5208437e+01 </wgt>
<wgt id='1645'> +6.5067930e+01 </wgt>
<wgt id='1646'> +6.5054243e+01 </wgt>
<wgt id='1647'> +6.5040886e+01 </wgt>
<wgt id='1648'> +6.5075166e+01 </wgt>
<wgt id='1649'> +6.5402658e+01 </wgt>
<wgt id='1650'> +6.4652216e+01 </wgt>
<wgt id='1651'> +6.5278923e+01 </wgt>
<wgt id='1652'> +6.4832251e+01 </wgt>
<wgt id='1653'> +6.4896000e+01 </wgt>
<wgt id='1654'> +6.5158372e+01 </wgt>
<wgt id='1655'> +6.5446440e+01 </wgt>
<wgt id='1656'> +6.4535295e+01 </wgt>
<wgt id='1657'> +6.5276872e+01 </wgt>
<wgt id='1658'> +6.4914286e+01 </wgt>
<wgt id='1659'> +6.6364245e+01 </wgt>
<wgt id='1660'> +6.3844497e+01 </wgt>
<wgt id='1661'> +6.5584520e+01 </wgt>
<wgt id='1662'> +6.3770558e+01 </wgt>
<wgt id='1663'> +6.5196469e+01 </wgt>
<wgt id='1664'> +6.4874443e+01 </wgt>
<wgt id='1665'> +6.5390229e+01 </wgt>
<wgt id='1666'> +6.4266742e+01 </wgt>
<wgt id='1667'> +6.5138009e+01 </wgt>
<wgt id='1668'> +6.4899520e+01 </wgt>
<wgt id='1669'> +6.5576830e+01 </wgt>
<wgt id='1670'> +6.3805107e+01 </wgt>
<wgt id='1671'> +6.5834002e+01 </wgt>
<wgt id='1672'> +6.4686248e+01 </wgt>
<wgt id='1673'> +6.5071662e+01 </wgt>
<wgt id='1674'> +6.4991759e+01 </wgt>
<wgt id='1675'> +6.4547981e+01 </wgt>
<wgt id='1676'> +6.5377973e+01 </wgt>
<wgt id='1677'> +6.5001596e+01 </wgt>
<wgt id='1678'> +6.5121075e+01 </wgt>
<wgt id='1679'> +6.5113650e+01 </wgt>
<wgt id='1680'> +6.4254461e+01 </wgt>
<wgt id='1681'> +6.4298308e+01 </wgt>
<wgt id='1682'> +6.5691703e+01 </wgt>
<wgt id='1683'> +6.5490854e+01 </wgt>
<wgt id='1684'> +6.4881007e+01 </wgt>
<wgt id='1685'> +6.4327465e+01 </wgt>
<wgt id='1686'> +6.5596853e+01 </wgt>
<wgt id='1687'> +9.2275742e+01 </wgt>
<wgt id='1688'> +5.9899942e+01 </wgt>
<wgt id='1689'> +5.9890423e+01 </wgt>
<wgt id='1690'> +5.9917004e+01 </wgt>
<wgt id='1691'> +5.9884051e+01 </wgt>
<wgt id='1692'> +5.9899240e+01 </wgt>
<wgt id='1693'> +5.9848635e+01 </wgt>
<wgt id='1694'> +5.9908140e+01 </wgt>
<wgt id='1695'> +6.0066110e+01 </wgt>
<wgt id='1696'> +6.0015778e+01 </wgt>
<wgt id='1697'> +6.0067194e+01 </wgt>
<wgt id='1698'> +5.9920794e+01 </wgt>
<wgt id='1699'> +5.9950745e+01 </wgt>
<wgt id='1700'> +5.9549272e+01 </wgt>
<wgt id='1701'> +5.9760839e+01 </wgt>
<wgt id='1702'> +6.0099737e+01 </wgt>
<wgt id='1703'> +5.9834294e+01 </wgt>
<wgt id='1704'> +5.9919140e+01 </wgt>
<wgt id='1705'> +5.9878301e+01 </wgt>
<wgt id='1706'> +5.9760329e+01 </wgt>
<wgt id='1707'> +5.9749313e+01 </wgt>
<wgt id='1708'> +6.0407609e+01 </wgt>
<wgt id='1709'> +5.9964704e+01 </wgt>
<wgt id='1710'> +5.9363101e+01 </wgt>
<wgt id='1711'> +5.9470727e+01 </wgt>
<wgt id='1712'> +5.9712700e+01 </wgt>
<wgt id='1713'> +5.9899126e+01 </wgt>
<wgt id='1714'> +6.0054047e+01 </wgt>
<wgt id='1715'> +5.9307303e+01 </wgt>
<wgt id='1716'> +6.0486629e+01 </wgt>
<wgt id='1717'> +5.9802511e+01 </wgt>
<wgt id='1718'> +6.3351846e+01 </wgt>
<wgt id='1719'> +6.3868048e+01 </wgt>
<wgt id='1720'> +6.4850589e+01 </wgt>
<wgt id='1721'> +6.3891664e+01 </wgt>
<wgt id='1722'> +6.3209357e+01 </wgt>
<wgt id='1723'> +6.2353476e+01 </wgt>
<wgt id='1724'> +6.4630090e+01 </wgt>
<wgt id='1725'> +6.2062338e+01 </wgt>
<wgt id='1726'> +6.2428119e+01 </wgt>
<wgt id='1727'> +6.3908623e+01 </wgt>
<wgt id='1728'> +6.5015220e+01 </wgt>
<wgt id='1729'> +6.4243794e+01 </wgt>
<wgt id='1730'> +6.3476048e+01 </wgt>
<wgt id='1731'> +6.2424229e+01 </wgt>
<wgt id='1732'> +6.2743088e+01 </wgt>
<wgt id='1733'> +6.4072175e+01 </wgt>
<wgt id='1734'> +6.3720020e+01 </wgt>
<wgt id='1735'> +6.3710421e+01 </wgt>
<wgt id='1736'> +6.2114594e+01 </wgt>
<wgt id='1737'> +6.3482799e+01 </wgt>
<wgt id='1738'> +6.3864124e+01 </wgt>
<wgt id='1739'> +6.2854202e+01 </wgt>
<wgt id='1740'> +6.3790855e+01 </wgt>
<wgt id='1741'> +6.3589615e+01 </wgt>
<wgt id='1742'> +6.3039466e+01 </wgt>
<wgt id='1743'> +6.1681980e+01 </wgt>
<wgt id='1744'> +6.2867508e+01 </wgt>
<wgt id='1745'> +6.3980713e+01 </wgt>
<wgt id='1746'> +6.2429222e+01 </wgt>
<wgt id='1747'> +6.3148001e+01 </wgt>
<wgt id='1748'> +6.3691327e+01 </wgt>
<wgt id='1749'> +6.3369297e+01 </wgt>
<wgt id='1750'> +6.3499451e+01 </wgt>
<wgt id='1751'> +6.3112897e+01 </wgt>
<wgt id='1752'> +6.2701683e+01 </wgt>
<wgt id='1753'> +6.4001216e+01 </wgt>
<wgt id='1754'> +6.3585290e+01 </wgt>
<wgt id='1755'> +6.2548452e+01 </wgt>
<wgt id='1756'> +6.4323167e+01 </wgt>
<wgt id='1757'> +6.3646179e+01 </wgt>
<wgt id='1758'> +6.3041199e+01 </wgt>
<wgt id='1759'> +6.3672023e+01 </wgt>
<wgt id='1760'> +6.3995877e+01 </wgt>
<wgt id='1761'> +6.3414476e+01 </wgt>
<wgt id='1762'> +6.2829586e+01 </wgt>
<wgt id='1763'> +6.3996792e+01 </wgt>
<wgt id='1764'> +6.3072731e+01 </wgt>
<wgt id='1765'> +6.3312085e+01 </wgt>
<wgt id='1766'> +6.3838406e+01 </wgt>
<wgt id='1767'> +6.3120941e+01 </wgt>
<wgt id='1768'> +6.2984716e+01 </wgt>
<wgt id='1769'> +6.2974311e+01 </wgt>
<wgt id='1770'> +6.2980725e+01 </wgt>
<wgt id='1771'> +6.2906210e+01 </wgt>
<wgt id='1772'> +6.2595588e+01 </wgt>
<wgt id='1773'> +6.3517574e+01 </wgt>
<wgt id='1774'> +6.3359385e+01 </wgt>
<wgt id='1775'> +6.3149409e+01 </wgt>
<wgt id='1776'> +6.3857583e+01 </wgt>
<wgt id='1777'> +6.3088724e+01 </wgt>
<wgt id='1778'> +6.3013395e+01 </wgt>
<wgt id='1779'> +6.3518088e+01 </wgt>
<wgt id='1780'> +6.3549288e+01 </wgt>
<wgt id='1781'> +6.3189295e+01 </wgt>
<wgt id='1782'> +6.3243513e+01 </wgt>
<wgt id='1783'> +6.3505897e+01 </wgt>
<wgt id='1784'> +6.3505617e+01 </wgt>
<wgt id='1785'> +6.2984246e+01 </wgt>
<wgt id='1786'> +6.3530331e+01 </wgt>
<wgt id='1787'> +6.3376109e+01 </wgt>
<wgt id='1788'> +6.3763941e+01 </wgt>
<wgt id='1789'> +6.3019905e+01 </wgt>
<wgt id='1790'> +6.3311693e+01 </wgt>
<wgt id='1791'> +6.3287969e+01 </wgt>
<wgt id='1792'> +6.3304350e+01 </wgt>
<wgt id='1793'> +6.3282473e+01 </wgt>
<wgt id='1794'> +6.3403247e+01 </wgt>
<wgt id='1795'> +6.3508768e+01 </wgt>
<wgt id='1796'> +6.3299576e+01 </wgt>
<wgt id='1797'> +6.3545561e+01 </wgt>
<wgt id='1798'> +6.3356520e+01 </wgt>
<wgt id='1799'> +6.3279832e+01 </wgt>
<wgt id='1800'> +6.3411534e+01 </wgt>
<wgt id='1801'> +6.3387742e+01 </wgt>
<wgt id='1802'> +6.3287520e+01 </wgt>
<wgt id='1803'> +6.3300813e+01 </wgt>
<wgt id='1804'> +6.3549507e+01 </wgt>
<wgt id='1805'> +6.3443883e+01 </wgt>
<wgt id='1806'> +6.3242329e+01 </wgt>
<wgt id='1807'> +6.3491300e+01 </wgt>
<wgt id='1808'> +6.3391686e+01 </wgt>
<wgt id='1809'> +6.3325120e+01 </wgt>
<wgt id='1810'> +6.3351472e+01 </wgt>
<wgt id='1811'> +6.3320971e+01 </wgt>
<wgt id='1812'> +6.3318152e+01 </wgt>
<wgt id='1813'> +6.3537083e+01 </wgt>
<wgt id='1814'> +6.3339765e+01 </wgt>
<wgt id='1815'> +6.3253356e+01 </wgt>
<wgt id='1816'> +6.3316026e+01 </wgt>
<wgt id='1817'> +6.3341942e+01 </wgt>
<wgt id='1818'> +6.3344289e+01 </wgt>
<wgt id='1819'> +6.1429700e+01 </wgt>
<wgt id='1820'> +6.5182313e+01 </wgt>
<wgt id='1821'> +6.1367670e+01 </wgt>
<wgt id='1822'> +6.1980992e+01 </wgt>
<wgt id='1823'> +6.2014936e+01 </wgt>
<wgt id='1824'> +6.0457230e+01 </wgt>
<wgt id='1825'> +6.1379731e+01 </wgt>
<wgt id='1826'> +6.1681662e+01 </wgt>
<wgt id='1827'> +6.0385642e+01 </wgt>
<wgt id='1828'> +6.0425328e+01 </wgt>
<wgt id='1829'> +6.1137610e+01 </wgt>
<wgt id='1830'> +6.1374617e+01 </wgt>
<wgt id='1831'> +6.0649108e+01 </wgt>
<wgt id='1832'> +6.1212109e+01 </wgt>
<wgt id='1833'> +6.1449168e+01 </wgt>
<wgt id='1834'> +6.0221666e+01 </wgt>
<wgt id='1835'> +6.2000902e+01 </wgt>
<wgt id='1836'> +6.2149446e+01 </wgt>
<wgt id='1837'> +6.1590315e+01 </wgt>
<wgt id='1838'> +6.1079600e+01 </wgt>
<wgt id='1839'> +6.1428738e+01 </wgt>
<wgt id='1840'> +6.1035327e+01 </wgt>
<wgt id='1841'> +6.0893617e+01 </wgt>
<wgt id='1842'> +6.1957660e+01 </wgt>
<wgt id='1843'> +6.1592841e+01 </wgt>
<wgt id='1844'> +6.0696459e+01 </wgt>
<wgt id='1845'> +6.1247922e+01 </wgt>
<wgt id='1846'> +6.2429709e+01 </wgt>
<wgt id='1847'> +6.1949081e+01 </wgt>
<wgt id='1848'> +6.0617227e+01 </wgt>
<wgt id='1849'> +6.1206110e+01 </wgt>
<wgt id='1850'> +6.1786015e+01 </wgt>
<wgt id='1851'> +6.1664133e+01 </wgt>
<wgt id='1852'> +6.0117609e+01 </wgt>
<wgt id='1853'> +6.1603781e+01 </wgt>
<wgt id='1854'> +6.1209029e+01 </wgt>
<wgt id='1855'> +6.1526902e+01 </wgt>
<wgt id='1856'> +6.1601041e+01 </wgt>
<wgt id='1857'> +6.1747949e+01 </wgt>
<wgt id='1858'> +6.0921875e+01 </wgt>
<wgt id='1859'> +6.1636509e+01 </wgt>
<wgt id='1860'> +6.2371211e+01 </wgt>
<wgt id='1861'> +6.2084872e+01 </wgt>
<wgt id='1862'> +6.1411983e+01 </wgt>
<wgt id='1863'> +6.1490653e+01 </wgt>
<wgt id='1864'> +6.0858230e+01 </wgt>
<wgt id='1865'> +6.1199955e+01 </wgt>
<wgt id='1866'> +6.1972200e+01 </wgt>
<wgt id='1867'> +6.1432881e+01 </wgt>
<wgt id='1868'> +6.1168204e+01 </wgt>
<wgt id='1869'> +6.1261179e+01 </wgt>
<wgt id='1870'> +6.1810456e+01 </wgt>
<wgt id='1871'> +6.1020107e+01 </wgt>
<wgt id='1872'> +6.1356517e+01 </wgt>
<wgt id='1873'> +6.1423211e+01 </wgt>
<wgt id='1874'> +6.0382119e+01 </wgt>
<wgt id='1875'> +6.1464624e+01 </wgt>
<wgt id='1876'> +6.1289419e+01 </wgt>
<wgt id='1877'> +6.1809846e+01 </wgt>
<wgt id='1878'> +6.1557399e+01 </wgt>
<wgt id='1879'> +6.1200034e+01 </wgt>
<wgt id='1880'> +6.1165631e+01 </wgt>
<wgt id='1881'> +6.1085886e+01 </wgt>
<wgt id='1882'> +6.1342488e+01 </wgt>
<wgt id='1883'> +6.1764652e+01 </wgt>
<wgt id='1884'> +6.1893111e+01 </wgt>
<wgt id='1885'> +6.1215792e+01 </wgt>
<wgt id='1886'> +6.1192586e+01 </wgt>
<wgt id='1887'> +6.1734811e+01 </wgt>
<wgt id='1888'> +6.1582775e+01 </wgt>
<wgt id='1889'> +6.1229870e+01 </wgt>
<wgt id='1890'> +6.1441710e+01 </wgt>
<wgt id='1891'> +6.1265531e+01 </wgt>
<wgt id='1892'> +6.1258535e+01 </wgt>
<wgt id='1893'> +6.1550615e+01 </wgt>
<wgt id='1894'> +6.1006662e+01 </wgt>
<wgt id='1895'> +6.1249761e+01 </wgt>
<wgt id='1896'> +6.1365452e+01 </wgt>
<wgt id='1897'> +6.1175303e+01 </wgt>
<wgt id='1898'> +6.1269361e+01 </wgt>
<wgt id='1899'> +6.1468494e+01 </wgt>
<wgt id='1900'> +6.1207530e+01 </wgt>
<wgt id='1901'> +6.1616030e+01 </wgt>
<wgt id='1902'> +6.1199196e+01 </wgt>
<wgt id='1903'> +6.1292909e+01 </wgt>
<wgt id='1904'> +6.1122572e+01 </wgt>
<wgt id='1905'> +6.1434890e+01 </wgt>
<wgt id='1906'> +6.1402948e+01 </wgt>
<wgt id='1907'> +6.1528199e+01 </wgt>
<wgt id='1908'> +6.1248900e+01 </wgt>
<wgt id='1909'> +6.1422999e+01 </wgt>
<wgt id='1910'> +6.1397183e+01 </wgt>
<wgt id='1911'> +6.1312296e+01 </wgt>
<wgt id='1912'> +6.1437393e+01 </wgt>
<wgt id='1913'> +6.1435730e+01 </wgt>
<wgt id='1914'> +6.1342610e+01 </wgt>
<wgt id='1915'> +6.1280565e+01 </wgt>
<wgt id='1916'> +6.1448637e+01 </wgt>
<wgt id='1917'> +6.1216822e+01 </wgt>
<wgt id='1918'> +6.1324916e+01 </wgt>
<wgt id='1919'> +6.1354836e+01 </wgt>
<wgt id='1920'> +6.1362997e+01 </wgt>
<wgt id='1921'> +6.1358465e+01 </wgt>
<wgt id='1922'> +5.9605824e+01 </wgt>
<wgt id='1923'> +6.3151046e+01 </wgt>
<wgt id='1924'> +6.3409520e+01 </wgt>
<wgt id='1925'> +6.6029834e+01 </wgt>
<wgt id='1926'> +6.3879391e+01 </wgt>
<wgt id='1927'> +6.3453521e+01 </wgt>
<wgt id='1928'> +6.2013212e+01 </wgt>
<wgt id='1929'> +6.4553439e+01 </wgt>
<wgt id='1930'> +6.3966333e+01 </wgt>
<wgt id='1931'> +6.3020237e+01 </wgt>
<wgt id='1932'> +6.3325939e+01 </wgt>
<wgt id='1933'> +6.2818992e+01 </wgt>
<wgt id='1934'> +6.3730847e+01 </wgt>
<wgt id='1935'> +6.2927471e+01 </wgt>
<wgt id='1936'> +6.2669554e+01 </wgt>
<wgt id='1937'> +6.3433652e+01 </wgt>
<wgt id='1938'> +6.3643801e+01 </wgt>
<wgt id='1939'> +6.1714978e+01 </wgt>
<wgt id='1940'> +6.2820871e+01 </wgt>
<wgt id='1941'> +6.4758427e+01 </wgt>
<wgt id='1942'> +6.3065819e+01 </wgt>
<wgt id='1943'> +6.2920563e+01 </wgt>
<wgt id='1944'> +6.1545441e+01 </wgt>
<wgt id='1945'> +6.3206687e+01 </wgt>
<wgt id='1946'> +6.3641080e+01 </wgt>
<wgt id='1947'> +6.3499740e+01 </wgt>
<wgt id='1948'> +6.3817917e+01 </wgt>
<wgt id='1949'> +6.3235644e+01 </wgt>
<wgt id='1950'> +6.3747851e+01 </wgt>
<wgt id='1951'> +6.2773169e+01 </wgt>
<wgt id='1952'> +6.4382022e+01 </wgt>
<wgt id='1953'> +6.3140640e+01 </wgt>
<wgt id='1954'> +6.3267638e+01 </wgt>
<wgt id='1955'> +6.1429700e+01 </wgt>
<wgt id='1956'> +6.5182313e+01 </wgt>
<wgt id='1957'> +6.1373390e+01 </wgt>
<wgt id='1958'> +6.0882412e+01 </wgt>
<wgt id='1959'> +6.1999041e+01 </wgt>
<wgt id='1960'> +6.1322352e+01 </wgt>
<wgt id='1961'> +6.2696112e+01 </wgt>
<wgt id='1962'> +6.1984710e+01 </wgt>
<wgt id='1963'> +6.1420022e+01 </wgt>
<wgt id='1964'> +6.0956325e+01 </wgt>
<wgt id='1965'> +6.2522813e+01 </wgt>
<wgt id='1966'> +6.0191532e+01 </wgt>
<wgt id='1967'> +6.0712240e+01 </wgt>
<wgt id='1968'> +5.9919996e+01 </wgt>
<wgt id='1969'> +6.1601020e+01 </wgt>
<wgt id='1970'> +6.2222537e+01 </wgt>
<wgt id='1971'> +6.1365786e+01 </wgt>
<wgt id='1972'> +6.2771831e+01 </wgt>
<wgt id='1973'> +6.1770826e+01 </wgt>
<wgt id='1974'> +6.1731860e+01 </wgt>
<wgt id='1975'> +6.1371421e+01 </wgt>
<wgt id='1976'> +6.0561565e+01 </wgt>
<wgt id='1977'> +6.1311363e+01 </wgt>
<wgt id='1978'> +6.1158989e+01 </wgt>
<wgt id='1979'> +6.2092204e+01 </wgt>
<wgt id='1980'> +6.1405317e+01 </wgt>
<wgt id='1981'> +6.1417773e+01 </wgt>
<wgt id='1982'> +6.1532605e+01 </wgt>
<wgt id='1983'> +6.0516335e+01 </wgt>
<wgt id='1984'> +6.1167381e+01 </wgt>
<wgt id='1985'> +6.1202939e+01 </wgt>
<wgt id='1986'> +6.1833723e+01 </wgt>
<wgt id='1987'> +6.1545529e+01 </wgt>
<wgt id='1988'> +5.9605824e+01 </wgt>
<wgt id='1989'> +6.3151046e+01 </wgt>
<wgt id='1990'> +4.6528402e+01 </wgt>
<wgt id='1991'> +4.6491882e+01 </wgt>
<wgt id='1992'> +4.6564448e+01 </wgt>
<wgt id='1993'> +4.6468021e+01 </wgt>
<wgt id='1994'> +4.6588194e+01 </wgt>
<wgt id='1995'> +4.6604514e+01 </wgt>
<wgt id='1996'> +4.6452544e+01 </wgt>
<wgt id='1997'> +4.6528319e+01 </wgt>
<wgt id='1998'> +4.6528916e+01 </wgt>
<wgt id='1999'> +4.6563284e+01 </wgt>
<wgt id='2000'> +4.6493557e+01 </wgt>
<wgt id='2001'> +4.6307545e+01 </wgt>
<wgt id='2002'> +4.6784618e+01 </wgt>
<wgt id='2003'> +4.6523129e+01 </wgt>
<wgt id='2004'> +4.6534648e+01 </wgt>
<wgt id='2005'> +4.6724267e+01 </wgt>
<wgt id='2006'> +4.6262781e+01 </wgt>
<wgt id='2007'> +4.6741505e+01 </wgt>
<wgt id='2008'> +4.6405647e+01 </wgt>
<wgt id='2009'> +4.6883052e+01 </wgt>
<wgt id='2010'> +4.6136860e+01 </wgt>
<wgt id='2011'> +4.5680006e+01 </wgt>
<wgt id='2012'> +4.7408766e+01 </wgt>
<wgt id='2013'> +4.8935657e+01 </wgt>
<wgt id='2014'> +4.4343698e+01 </wgt>
<wgt id='2015'> +4.6382374e+01 </wgt>
<wgt id='2016'> +4.6692689e+01 </wgt>
<wgt id='2017'> +4.6519546e+01 </wgt>
<wgt id='2018'> +4.6595014e+01 </wgt>
<wgt id='2019'> +4.6528402e+01 </wgt>
<wgt id='2020'> +4.9970460e+01 </wgt>
<wgt id='2021'> +4.2045652e+01 </wgt>
<wgt id='2022'> +6.1104049e+01 </wgt>
<wgt id='2023'> +6.1036283e+01 </wgt>
<wgt id='2024'> +4.4986177e+01 </wgt>
<wgt id='2025'> +4.6015766e+01 </wgt>
<wgt id='2026'> +4.6108275e+01 </wgt>
<wgt id='2027'> +4.6033340e+01 </wgt>
<wgt id='2028'> +4.6651238e+01 </wgt>
<wgt id='2029'> +4.5486550e+01 </wgt>
<wgt id='2030'> +4.6533574e+01 </wgt>
<wgt id='2031'> +4.5138496e+01 </wgt>
<wgt id='2032'> +4.5194937e+01 </wgt>
<wgt id='2033'> +3.8470717e+01 </wgt>
<wgt id='2034'> +3.8002581e+01 </wgt>
<wgt id='2035'> +3.8111434e+01 </wgt>
<wgt id='2036'> +3.8013652e+01 </wgt>
<wgt id='2037'> +3.8100490e+01 </wgt>
<wgt id='2038'> +3.8107369e+01 </wgt>
<wgt id='2039'> +3.8006840e+01 </wgt>
<wgt id='2040'> +3.8169950e+01 </wgt>
<wgt id='2041'> +3.7949631e+01 </wgt>
<wgt id='2042'> +3.7901422e+01 </wgt>
<wgt id='2043'> +3.8219884e+01 </wgt>
<wgt id='2044'> +3.8194580e+01 </wgt>
<wgt id='2045'> +3.7921910e+01 </wgt>
<wgt id='2046'> +3.8020073e+01 </wgt>
<wgt id='2047'> +3.8089911e+01 </wgt>
<wgt id='2048'> +3.8073115e+01 </wgt>
<wgt id='2049'> +3.7924941e+01 </wgt>
<wgt id='2050'> +3.7974580e+01 </wgt>
<wgt id='2051'> +3.8144178e+01 </wgt>
<wgt id='2052'> +3.8036704e+01 </wgt>
<wgt id='2053'> +3.8084685e+01 </wgt>
<wgt id='2054'> +3.8692103e+01 </wgt>
<wgt id='2055'> +3.7437954e+01 </wgt>
<wgt id='2056'> +3.9127186e+01 </wgt>
<wgt id='2057'> +3.7100427e+01 </wgt>
<wgt id='2058'> +4.0848992e+01 </wgt>
<wgt id='2059'> +3.5757818e+01 </wgt>
<wgt id='2060'> +3.9967282e+01 </wgt>
<wgt id='2061'> +3.6390822e+01 </wgt>
<wgt id='2062'> +3.8404592e+01 </wgt>
<wgt id='2063'> +4.1226117e+01 </wgt>
<wgt id='2064'> +3.5046820e+01 </wgt>
<wgt id='2065'> +4.9202773e+01 </wgt>
<wgt id='2066'> +4.7455418e+01 </wgt>
<wgt id='2067'> +4.0509747e+01 </wgt>
<wgt id='2068'> +3.9431830e+01 </wgt>
<wgt id='2069'> +3.7960149e+01 </wgt>
<wgt id='2070'> +3.7272413e+01 </wgt>
<wgt id='2071'> +4.0761412e+01 </wgt>
<wgt id='2072'> +4.1044605e+01 </wgt>
<wgt id='2073'> +4.1258752e+01 </wgt>
<wgt id='2074'> +3.4751401e+01 </wgt>
<wgt id='2075'> +3.8511789e+01 </wgt>
<wgt id='2076'> +5.7960827e+01 </wgt>
<wgt id='2077'> +5.7947600e+01 </wgt>
<wgt id='2078'> +5.7934987e+01 </wgt>
<wgt id='2079'> +5.7922397e+01 </wgt>
<wgt id='2080'> +5.7909113e+01 </wgt>
<wgt id='2081'> +5.7896830e+01 </wgt>
<wgt id='2082'> +5.7883931e+01 </wgt>
<wgt id='2083'> +5.7871580e+01 </wgt>
<wgt id='2084'> +5.7857947e+01 </wgt>
<wgt id='2085'> +5.7845587e+01 </wgt>
<wgt id='2086'> +5.7832795e+01 </wgt>
<wgt id='2087'> +5.7820095e+01 </wgt>
<wgt id='2088'> +5.7807130e+01 </wgt>
<wgt id='2089'> +5.7794301e+01 </wgt>
<wgt id='2090'> +5.7781840e+01 </wgt>
<wgt id='2091'> +5.7768571e+01 </wgt>
<wgt id='2092'> +5.7756274e+01 </wgt>
<wgt id='2093'> +5.7743021e+01 </wgt>
<wgt id='2094'> +5.7730219e+01 </wgt>
<wgt id='2095'> +5.7717244e+01 </wgt>
<wgt id='2096'> +5.7704645e+01 </wgt>
<wgt id='2097'> +5.7692148e+01 </wgt>
<wgt id='2098'> +5.7679308e+01 </wgt>
<wgt id='2099'> +5.7666286e+01 </wgt>
<wgt id='2100'> +5.7653465e+01 </wgt>
<wgt id='2101'> +5.7640830e+01 </wgt>
<wgt id='2102'> +5.7627317e+01 </wgt>
<wgt id='2103'> +5.7614606e+01 </wgt>
<wgt id='2104'> +5.7602121e+01 </wgt>
<wgt id='2105'> +5.7589090e+01 </wgt>
<wgt id='2106'> +5.7576147e+01 </wgt>
<wgt id='2107'> +6.0627816e+01 </wgt>
<wgt id='2108'> +6.1219713e+01 </wgt>
<wgt id='2109'> +6.1258965e+01 </wgt>
<wgt id='2110'> +5.9734519e+01 </wgt>
<wgt id='2111'> +6.0638869e+01 </wgt>
<wgt id='2112'> +6.0941940e+01 </wgt>
<wgt id='2113'> +5.9672440e+01 </wgt>
<wgt id='2114'> +5.9705396e+01 </wgt>
<wgt id='2115'> +6.0399454e+01 </wgt>
<wgt id='2116'> +6.0636549e+01 </wgt>
<wgt id='2117'> +5.9918582e+01 </wgt>
<wgt id='2118'> +6.0487356e+01 </wgt>
<wgt id='2119'> +6.0713819e+01 </wgt>
<wgt id='2120'> +5.9506057e+01 </wgt>
<wgt id='2121'> +6.1246923e+01 </wgt>
<wgt id='2122'> +6.1371239e+01 </wgt>
<wgt id='2123'> +6.0862440e+01 </wgt>
<wgt id='2124'> +6.0336716e+01 </wgt>
<wgt id='2125'> +6.0682875e+01 </wgt>
<wgt id='2126'> +6.0309799e+01 </wgt>
<wgt id='2127'> +6.0173854e+01 </wgt>
<wgt id='2128'> +6.1202060e+01 </wgt>
<wgt id='2129'> +6.0849697e+01 </wgt>
<wgt id='2130'> +5.9967058e+01 </wgt>
<wgt id='2131'> +6.0501284e+01 </wgt>
<wgt id='2132'> +6.1663447e+01 </wgt>
<wgt id='2133'> +6.1188859e+01 </wgt>
<wgt id='2134'> +5.9901418e+01 </wgt>
<wgt id='2135'> +6.0474754e+01 </wgt>
<wgt id='2136'> +6.1035404e+01 </wgt>
<wgt id='2137'> +6.0918036e+01 </wgt>
<wgt id='2138'> +5.9406960e+01 </wgt>
<wgt id='2139'> +6.0858131e+01 </wgt>
<wgt id='2140'> +6.0469652e+01 </wgt>
<wgt id='2141'> +6.0782889e+01 </wgt>
<wgt id='2142'> +6.0855886e+01 </wgt>
<wgt id='2143'> +6.1003480e+01 </wgt>
<wgt id='2144'> +6.0187460e+01 </wgt>
<wgt id='2145'> +6.0891355e+01 </wgt>
<wgt id='2146'> +6.1613157e+01 </wgt>
<wgt id='2147'> +6.1336116e+01 </wgt>
<wgt id='2148'> +6.0668237e+01 </wgt>
<wgt id='2149'> +6.0745315e+01 </wgt>
<wgt id='2150'> +6.0132301e+01 </wgt>
<wgt id='2151'> +6.0462802e+01 </wgt>
<wgt id='2152'> +6.1221574e+01 </wgt>
<wgt id='2153'> +6.0693577e+01 </wgt>
<wgt id='2154'> +6.0427810e+01 </wgt>
<wgt id='2155'> +6.0525434e+01 </wgt>
<wgt id='2156'> +6.1063061e+01 </wgt>
<wgt id='2157'> +6.0286103e+01 </wgt>
<wgt id='2158'> +6.0616255e+01 </wgt>
<wgt id='2159'> +6.0683532e+01 </wgt>
<wgt id='2160'> +5.9654386e+01 </wgt>
<wgt id='2161'> +6.0726912e+01 </wgt>
<wgt id='2162'> +6.0553081e+01 </wgt>
<wgt id='2163'> +6.1060241e+01 </wgt>
<wgt id='2164'> +6.0815067e+01 </wgt>
<wgt id='2165'> +6.0465825e+01 </wgt>
<wgt id='2166'> +6.0432538e+01 </wgt>
<wgt id='2167'> +6.0352108e+01 </wgt>
<wgt id='2168'> +6.0604036e+01 </wgt>
<wgt id='2169'> +6.1017779e+01 </wgt>
<wgt id='2170'> +6.1143257e+01 </wgt>
<wgt id='2171'> +6.0477680e+01 </wgt>
<wgt id='2172'> +6.0454767e+01 </wgt>
<wgt id='2173'> +6.0990102e+01 </wgt>
<wgt id='2174'> +6.0840214e+01 </wgt>
<wgt id='2175'> +6.0492316e+01 </wgt>
<wgt id='2176'> +6.0701527e+01 </wgt>
<wgt id='2177'> +6.0526018e+01 </wgt>
<wgt id='2178'> +6.0522905e+01 </wgt>
<wgt id='2179'> +6.0806033e+01 </wgt>
<wgt id='2180'> +6.0267860e+01 </wgt>
<wgt id='2181'> +6.0512057e+01 </wgt>
<wgt id='2182'> +6.0625079e+01 </wgt>
<wgt id='2183'> +6.0440250e+01 </wgt>
<wgt id='2184'> +6.0533095e+01 </wgt>
<wgt id='2185'> +6.0731102e+01 </wgt>
<wgt id='2186'> +6.0469124e+01 </wgt>
<wgt id='2187'> +6.0871475e+01 </wgt>
<wgt id='2188'> +6.0461196e+01 </wgt>
<wgt id='2189'> +6.0553826e+01 </wgt>
<wgt id='2190'> +6.0387238e+01 </wgt>
<wgt id='2191'> +6.0694329e+01 </wgt>
<wgt id='2192'> +6.0664015e+01 </wgt>
<wgt id='2193'> +6.0789532e+01 </wgt>
<wgt id='2194'> +6.0510835e+01 </wgt>
<wgt id='2195'> +6.0679064e+01 </wgt>
<wgt id='2196'> +6.0655320e+01 </wgt>
<wgt id='2197'> +6.0570617e+01 </wgt>
<wgt id='2198'> +6.0691994e+01 </wgt>
<wgt id='2199'> +6.0692705e+01 </wgt>
<wgt id='2200'> +6.0603945e+01 </wgt>
<wgt id='2201'> +6.0541921e+01 </wgt>
<wgt id='2202'> +6.0710768e+01 </wgt>
<wgt id='2203'> +6.0481536e+01 </wgt>
<wgt id='2204'> +6.0585944e+01 </wgt>
<wgt id='2205'> +6.0612728e+01 </wgt>
<wgt id='2206'> +6.0622306e+01 </wgt>
<wgt id='2207'> +6.0620550e+01 </wgt>
<wgt id='2208'> +6.0627149e+01 </wgt>
<wgt id='2209'> +6.0623385e+01 </wgt>
<wgt id='2210'> +6.0628527e+01 </wgt>
<wgt id='2211'> +6.0628639e+01 </wgt>
<wgt id='2212'> +6.0629873e+01 </wgt>
<wgt id='2213'> +6.0628116e+01 </wgt>
<wgt id='2214'> +6.0624858e+01 </wgt>
<wgt id='2215'> +6.3999972e+01 </wgt>
<wgt id='2216'> +6.5525074e+01 </wgt>
<wgt id='2217'> +6.1758893e+01 </wgt>
<wgt id='2218'> +6.6541915e+01 </wgt>
<wgt id='2219'> +6.2091838e+01 </wgt>
<wgt id='2220'> +6.6054882e+01 </wgt>
<wgt id='2221'> +6.7810685e+01 </wgt>
<wgt id='2222'> +6.3004611e+01 </wgt>
<wgt id='2223'> +6.2522042e+01 </wgt>
<wgt id='2224'> +6.6643742e+01 </wgt>
<wgt id='2225'> +6.3648173e+01 </wgt>
<wgt id='2226'> +5.9272586e+01 </wgt>
<wgt id='2227'> +6.4921709e+01 </wgt>
<wgt id='2228'> +6.6989595e+01 </wgt>
<wgt id='2229'> +6.2511440e+01 </wgt>
<wgt id='2230'> +6.5971069e+01 </wgt>
<wgt id='2231'> +6.6736186e+01 </wgt>
<wgt id='2232'> +6.5725495e+01 </wgt>
<wgt id='2233'> +6.5985362e+01 </wgt>
<wgt id='2234'> +6.5321851e+01 </wgt>
<wgt id='2235'> +6.3525645e+01 </wgt>
<wgt id='2236'> +6.6472982e+01 </wgt>
<wgt id='2237'> +6.2049745e+01 </wgt>
<wgt id='2238'> +7.1053130e+01 </wgt>
<wgt id='2239'> +6.4122660e+01 </wgt>
<wgt id='2240'> +6.0250924e+01 </wgt>
<wgt id='2241'> +6.3190163e+01 </wgt>
<wgt id='2242'> +6.5929217e+01 </wgt>
<wgt id='2243'> +6.1963521e+01 </wgt>
<wgt id='2244'> +6.3851103e+01 </wgt>
<wgt id='2245'> +6.5612291e+01 </wgt>
<wgt id='2246'> +6.3098463e+01 </wgt>
<wgt id='2247'> +6.1403445e+01 </wgt>
<wgt id='2248'> +6.3164757e+01 </wgt>
<wgt id='2249'> +6.4952260e+01 </wgt>
<wgt id='2250'> +6.6210680e+01 </wgt>
<wgt id='2251'> +6.2164964e+01 </wgt>
<wgt id='2252'> +6.6726325e+01 </wgt>
<wgt id='2253'> +6.5341932e+01 </wgt>
<wgt id='2254'> +6.6625752e+01 </wgt>
<wgt id='2255'> +6.0705165e+01 </wgt>
<wgt id='2256'> +6.4390089e+01 </wgt>
<wgt id='2257'> +6.3100018e+01 </wgt>
<wgt id='2258'> +6.3061036e+01 </wgt>
<wgt id='2259'> +6.4889440e+01 </wgt>
<wgt id='2260'> +6.0322039e+01 </wgt>
<wgt id='2261'> +6.6755335e+01 </wgt>
<wgt id='2262'> +6.3150799e+01 </wgt>
<wgt id='2263'> +6.3232542e+01 </wgt>
<wgt id='2264'> +6.3966357e+01 </wgt>
<wgt id='2265'> +6.1559792e+01 </wgt>
<wgt id='2266'> +6.1480246e+01 </wgt>
<wgt id='2267'> +6.1767100e+01 </wgt>
<wgt id='2268'> +6.5092424e+01 </wgt>
<wgt id='2269'> +6.4104545e+01 </wgt>
<wgt id='2270'> +6.3548251e+01 </wgt>
<wgt id='2271'> +6.4152164e+01 </wgt>
<wgt id='2272'> +6.4904135e+01 </wgt>
<wgt id='2273'> +6.0044029e+01 </wgt>
<wgt id='2274'> +6.4842052e+01 </wgt>
<wgt id='2275'> +6.0373865e+01 </wgt>
<wgt id='2276'> +6.3436173e+01 </wgt>
<wgt id='2277'> +6.2763940e+01 </wgt>
<wgt id='2278'> +6.6448449e+01 </wgt>
<wgt id='2279'> +6.1165546e+01 </wgt>
<wgt id='2280'> +6.2603511e+01 </wgt>
<wgt id='2281'> +6.4588439e+01 </wgt>
<wgt id='2282'> +6.9820432e+01 </wgt>
<wgt id='2283'> +6.3025891e+01 </wgt>
<wgt id='2284'> +6.1700643e+01 </wgt>
<wgt id='2285'> +6.3392451e+01 </wgt>
<wgt id='2286'> +6.4369162e+01 </wgt>
<wgt id='2287'> +6.4084639e+01 </wgt>
<wgt id='2288'> +6.2606552e+01 </wgt>
<wgt id='2289'> +6.5742178e+01 </wgt>
<wgt id='2290'> +6.1995318e+01 </wgt>
<wgt id='2291'> +5.8638613e+01 </wgt>
<wgt id='2292'> +6.5232820e+01 </wgt>
<wgt id='2293'> +6.6232837e+01 </wgt>
<wgt id='2294'> +6.2444388e+01 </wgt>
<wgt id='2295'> +6.1861765e+01 </wgt>
<wgt id='2296'> +6.1893810e+01 </wgt>
<wgt id='2297'> +5.9340041e+01 </wgt>
<wgt id='2298'> +6.6106803e+01 </wgt>
<wgt id='2299'> +6.5579267e+01 </wgt>
<wgt id='2300'> +6.4363438e+01 </wgt>
<wgt id='2301'> +6.4253884e+01 </wgt>
<wgt id='2302'> +6.1280885e+01 </wgt>
<wgt id='2303'> +6.4313381e+01 </wgt>
<wgt id='2304'> +6.8300536e+01 </wgt>
<wgt id='2305'> +6.3693664e+01 </wgt>
<wgt id='2306'> +6.4545936e+01 </wgt>
<wgt id='2307'> +6.1470193e+01 </wgt>
<wgt id='2308'> +6.4373273e+01 </wgt>
<wgt id='2309'> +6.7681598e+01 </wgt>
<wgt id='2310'> +6.5257553e+01 </wgt>
<wgt id='2311'> +6.4065316e+01 </wgt>
<wgt id='2312'> +6.7609315e+01 </wgt>
<wgt id='2313'> +6.3921206e+01 </wgt>
<wgt id='2314'> +6.3222874e+01 </wgt>
<wgt id='2315'> +6.6649902e+01 </wgt>
<wgt id='2316'> +6.2215792e+01 </wgt>
<wgt id='2317'> +6.4761185e+01 </wgt>
<wgt id='2318'> +6.1258193e+01 </wgt>
<wgt id='2319'> +6.5786730e+01 </wgt>
<wgt id='2320'> +8.7389961e+01 </wgt>
<wgt id='2321'> +6.3723826e+01 </wgt>
<wgt id='2322'> +7.3315899e+01 </wgt>
</rwgt>
</event>
<event>
13      3 +6.1139206e+01 1.73558100e+02 7.56146200e-03 1.07581300e-01
       21 -1    0    0  505  503 +0.0000000000e+00 +0.0000000000e+00 +1.2848236128e+03 1.2848236128e+03 0.0000000000e+00 0.0000e+00 -1.0000e+00
       21 -1    0    0  502  504 -0.0000000000e+00 -0.0000000000e+00 -3.9857645392e+01 3.9857645392e+01 0.0000000000e+00 0.0000e+00 -1.0000e+00
        6  2    1    2  502    0 -9.4569259262e+00 -2.1538987758e+01 +2.4866695396e+02 3.0312137882e+02 1.7173804139e+02 0.0000e+00 0.0000e+00
       24  2    3    3    0    0 +7.9123327320e+00 +3.6046980350e+01 +2.1724910195e+02 2.3513322768e+02 8.2027267796e+01 0.0000e+00 0.0000e+00
       -6  2    1    2    0  503 +1.9036089752e+00 +2.9503588598e+01 +5.8681246835e+02 6.1192624053e+02 1.7097007155e+02 0.0000e+00 0.0000e+00
      -24  2    5    5    0    0 +5.5598912085e+01 -2.6645209972e+00 +4.4531960488e+02 4.5715002897e+02 8.7053200966e+01 0.0000e+00 0.0000e+00
        4  1    4    4  501    0 +3.9537089165e+01 -1.2087246177e+00 +1.1899662388e+02 1.2539871981e+02 0.0000000000e+00 0.0000e+00 -1.0000e+00
       -3  1    4    4    0  501 -3.1624756433e+01 +3.7255704968e+01 +9.8252478069e+01 1.0973450788e+02 0.0000000000e+00 0.0000e+00 1.0000e+00
        5  1    3    3  502    0 -1.7369258658e+01 -5.7585968108e+01 +3.1417852016e+01 6.7988151133e+01 4.1800000000e+00 0.0000e+00 -1.0000e+00
       15  1    6    6    0    0 +1.2253876825e+01 +4.0395752453e+01 +1.8593591432e+02 1.9066761274e+02 0.0000000000e+00 0.0000e+00 -1.0000e+00
      -16  1    6    6    0    0 +4.3345035260e+01 -4.3060273450e+01 +2.5938369056e+02 2.6648241623e+02 0.0000000000e+00 0.0000e+00 1.0000e+00
       -5  1    5    5    0  503 -5.3695303110e+01 +3.2168109595e+01 +1.4149286347e+02 1.5477621155e+02 4.1800000000e+00 0.0000e+00 1.0000e+00
       21  1    1    2  505  504 +7.5533169510e+00 -7.9646008407e+00 +4.0948654512e+02 4.0963363887e+02 0.0000000000e+00 0.0000e+00 -1.0000e+00
<scales pt_clust_7="13000.00000" pt_clust_8="13000.00000" pt_clust_9="13000.00000" pt_clust_10="13000.00000" pt_clust_11="13000.00000" pt_clust_12="13000.00000" pt_clust_13="10.97668"></scales>
<mgrwt>
<rscale>  2 0.17336779E+03</rscale>
<asrwt>  1 0.10976678E+02</asrwt>
<pdfrwt beam="1">  2       21       21 0.19766514E+00 0.13429117E+00 0.10976678E+02 0.17355807E+03</pdfrwt>
<pdfrwt beam="2">  1       21 0.61319464E-02 0.10976678E+02</pdfrwt>
<totfact> 0.53193911E+01</totfact>
</mgrwt>
<clustering>
<clus scale="   10.977">  1 13  2 -1</clus>
<clus scale="   82.027">  7  8 -1 -1</clus>
<clus scale="   87.053"> 10 11 -1 -1</clus>
<clus scale="  170.970"> 10 12 -1 -1</clus>
<clus scale="  171.738">  7  9 -1 -1</clus>
<clus scale="  172.798">  1 10  2 -1</clus>
<clus scale="   10.977">  1  7  2 -1</clus>
</clustering>
<rwgt>
<wgt id='dummy'> +6.1139206e+01 </wgt>
<wgt id='ctGRe_0p_cQj18_0p_cQj38_0p_cQj11_0p_cjj31_0p_ctu8_0p_ctd8_0p_ctj8_0p_cQu8_0p_cQd8_0p_ctu1_0p_ctd1_0p_ctj1_0p_cQu1_0p_cQd1_0p'> +6.1139206e+01 </wgt>
<wgt id='ctGRe_1p_cQj18_0p_cQj38_0p_cQj11_0p_cjj31_0p_ctu8_0p_ctd8_0p_ctj8_0p_cQu8_0p_cQd8_0p_ctu1_0p_ctd1_0p_ctj1_0p_cQu1_0p_cQd1_0p'> +4.4026340e+01 </wgt>
<wgt id='ctGRe_0p_cQj18_1p_cQj38_0p_cQj11_0p_cjj31_0p_ctu8_0p_ctd8_0p_ctj8_0p_cQu8_0p_cQd8_0p_ctu1_0p_ctd1_0p_ctj1_0p_cQu1_0p_cQd1_0p'> +6.1139206e+01 </wgt>
<wgt id='ctGRe_0p_cQj18_0p_cQj38_1p_cQj11_0p_cjj31_0p_ctu8_0p_ctd8_0p_ctj8_0p_cQu8_0p_cQd8_0p_ctu1_0p_ctd1_0p_ctj1_0p_cQu1_0p_cQd1_0p'> +6.1139206e+01 </wgt>
<wgt id='ctGRe_0p_cQj18_0p_cQj38_0p_cQj11_1p_cjj31_0p_ctu8_0p_ctd8_0p_ctj8_0p_cQu8_0p_cQd8_0p_ctu1_0p_ctd1_0p_ctj1_0p_cQu1_0p_cQd1_0p'> +6.1139206e+01 </wgt>
<wgt id='ctGRe_0p_cQj18_0p_cQj38_0p_cQj11_0p_cjj31_1p_ctu8_0p_ctd8_0p_ctj8_0p_cQu8_0p_cQd8_0p_ctu1_0p_ctd1_0p_ctj1_0p_cQu1_0p_cQd1_0p'> +6.1139206e+01 </wgt>
<wgt id='ctGRe_0p_cQj18_0p_cQj38_0p_cQj11_0p_cjj31_0p_ctu8_1p_ctd8_0p_ctj8_0p_cQu8_0p_cQd8_0p_ctu1_0p_ctd1_0p_ctj1_0p_cQu1_0p_cQd1_0p'> +6.1139206e+01 </wgt>
<wgt id='ctGRe_0p_cQj18_0p_cQj38_0p_cQj11_0p_cjj31_0p_ctu8_0p_ctd8_1p_ctj8_0p_cQu8_0p_cQd8_0p_ctu1_0p_ctd1_0p_ctj1_0p_cQu1_0p_cQd1_0p'> +6.1139206e+01 </wgt>
<wgt id='ctGRe_0p_cQj18_0p_cQj38_0p_cQj11_0p_cjj31_0p_ctu8_0p_ctd8_0p_ctj8_1p_cQu8_0p_cQd8_0p_ctu1_0p_ctd1_0p_ctj1_0p_cQu1_0p_cQd1_0p'> +6.1139206e+01 </wgt>
<wgt id='ctGRe_0p_cQj18_0p_cQj38_0p_cQj11_0p_cjj31_0p_ctu8_0p_ctd8_0p_ctj8_0p_cQu8_1p_cQd8_0p_ctu1_0p_ctd1_0p_ctj1_0p_cQu1_0p_cQd1_0p'> +6.1139206e+01 </wgt>
<wgt id='ctGRe_0p_cQj18_0p_cQj38_0p_cQj11_0p_cjj31_0p_ctu8_0p_ctd8_0p_ctj8_0p_cQu8_0p_cQd8_1p_ctu1_0p_ctd1_0p_ctj1_0p_cQu1_0p_cQd1_0p'> +6.1139206e+01 </wgt>
<wgt id='ctGRe_0p_cQj18_0p_cQj38_0p_cQj11_0p_cjj31_0p_ctu8_0p_ctd8_0p_ctj8_0p_cQu8_0p_cQd8_0p_ctu1_1p_ctd1_0p_ctj1_0p_cQu1_0p_cQd1_0p'> +6.1139206e+01 </wgt>
<wgt id='ctGRe_0p_cQj18_0p_cQj38_0p_cQj11_0p_cjj31_0p_ctu8_0p_ctd8_0p_ctj8_0p_cQu8_0p_cQd8_0p_ctu1_0p_ctd1_1p_ctj1_0p_cQu1_0p_cQd1_0p'> +6.1139206e+01 </wgt>
<wgt id='ctGRe_0p_cQj18_0p_cQj38_0p_cQj11_0p_cjj31_0p_ctu8_0p_ctd8_0p_ctj8_0p_cQu8_0p_cQd8_0p_ctu1_0p_ctd1_0p_ctj1_1p_cQu1_0p_cQd1_0p'> +6.1139206e+01 </wgt>
<wgt id='ctGRe_0p_cQj18_0p_cQj38_0p_cQj11_0p_cjj31_0p_ctu8_0p_ctd8_0p_ctj8_0p_cQu8_0p_cQd8_0p_ctu1_0p_ctd1_0p_ctj1_0p_cQu1_1p_cQd1_0p'> +6.1139206e+01 </wgt>
<wgt id='ctGRe_0p_cQj18_0p_cQj38_0p_cQj11_0p_cjj31_0p_ctu8_0p_ctd8_0p_ctj8_0p_cQu8_0p_cQd8_0p_ctu1_0p_ctd1_0p_ctj1_0p_cQu1_0p_cQd1_1p'> +6.1139206e+01 </wgt>
<wgt id='ctGRe_2p_cQj18_0p_cQj38_0p_cQj11_0p_cjj31_0p_ctu8_0p_ctd8_0p_ctj8_0p_cQu8_0p_cQd8_0p_ctu1_0p_ctd1_0p_ctj1_0p_cQu1_0p_cQd1_0p'> +2.9877316e+01 </wgt>
<wgt id='ctGRe_1p_cQj18_1p_cQj38_0p_cQj11_0p_cjj31_0p_ctu8_0p_ctd8_0p_ctj8_0p_cQu8_0p_cQd8_0p_ctu1_0p_ctd1_0p_ctj1_0p_cQu1_0p_cQd1_0p'> +4.4026340e+01 </wgt>
<wgt id='ctGRe_1p_cQj18_0p_cQj38_1p_cQj11_0p_cjj31_0p_ctu8_0p_ctd8_0p_ctj8_0p_cQu8_0p_cQd8_0p_ctu1_0p_ctd1_0p_ctj1_0p_cQu1_0p_cQd1_0p'> +4.4026340e+01 </wgt>
<wgt id='ctGRe_1p_cQj18_0p_cQj38_0p_cQj11_1p_cjj31_0p_ctu8_0p_ctd8_0p_ctj8_0p_cQu8_0p_cQd8_0p_ctu1_0p_ctd1_0p_ctj1_0p_cQu1_0p_cQd1_0p'> +4.4026340e+01 </wgt>
<wgt id='ctGRe_1p_cQj18_0p_cQj38_0p_cQj11_0p_cjj31_1p_ctu8_0p_ctd8_0p_ctj8_0p_cQu8_0p_cQd8_0p_ctu1_0p_ctd1_0p_ctj1_0p_cQu1_0p_cQd1_0p'> +4.4026340e+01 </wgt>
<wgt id='ctGRe_1p_cQj18_0p_cQj38_0p_cQj11_0p_cjj31_0p_ctu8_1p_ctd8_0p_ctj8_0p_cQu8_0p_cQd8_0p_ctu1_0p_ctd1_0p_ctj1_0p_cQu1_0p_cQd1_0p'> +4.4026340e+01 </wgt>
<wgt id='ctGRe_1p_cQj18_0p_cQj38_0p_cQj11_0p_cjj31_0p_ctu8_0p_ctd8_1p_ctj8_0p_cQu8_0p_cQd8_0p_ctu1_0p_ctd1_0p_ctj1_0p_cQu1_0p_cQd1_0p'> +4.4026340e+01 </wgt>
<wgt id='ctGRe_1p_cQj18_0p_cQj38_0p_cQj11_0p_cjj31_0p_ctu8_0p_ctd8_0p_ctj8_1p_cQu8_0p_cQd8_0p_ctu1_0p_ctd1_0p_ctj1_0p_cQu1_0p_cQd1_0p'> +4.4026340e+01 </wgt>
<wgt id='ctGRe_1p_cQj18_0p_cQj38_0p_cQj11_0p_cjj31_0p_ctu8_0p_ctd8_0p_ctj8_0p_cQu8_1p_cQd8_0p_ctu1_0p_ctd1_0p_ctj1_0p_cQu1_0p_cQd1_0p'> +4.4026340e+01 </wgt>
<wgt id='ctGRe_1p_cQj18_0p_cQj38_0p_cQj11_0p_cjj31_0p_ctu8_0p_ctd8_0p_ctj8_0p_cQu8_0p_cQd8_1p_ctu1_0p_ctd1_0p_ctj1_0p_cQu1_0p_cQd1_0p'> +4.4026340e+01 </wgt>
<wgt id='ctGRe_1p_cQj18_0p_cQj38_0p_cQj11_0p_cjj31_0p_ctu8_0p_ctd8_0p_ctj8_0p_cQu8_0p_cQd8_0p_ctu1_1p_ctd1_0p_ctj1_0p_cQu1_0p_cQd1_0p'> +4.4026340e+01 </wgt>
<wgt id='ctGRe_1p_cQj18_0p_cQj38_0p_cQj11_0p_cjj31_0p_ctu8_0p_ctd8_0p_ctj8_0p_cQu8_0p_cQd8_0p_ctu1_0p_ctd1_1p_ctj1_0p_cQu1_0p_cQd1_0p'> +4.4026340e+01 </wgt>
<wgt id='ctGRe_1p_cQj18_0p_cQj38_0p_cQj11_0p_cjj31_0p_ctu8_0p_ctd8_0p_ctj8_0p_cQu8_0p_cQd8_0p_ctu1_0p_ctd1_0p_ctj1_1p_cQu1_0p_cQd1_0p'> +4.4026340e+01 </wgt>
<wgt id='ctGRe_1p_cQj18_0p_cQj38_0p_cQj11_0p_cjj31_0p_ctu8_0p_ctd8_0p_ctj8_0p_cQu8_0p_cQd8_0p_ctu1_0p_ctd1_0p_ctj1_0p_cQu1_1p_cQd1_0p'> +4.4026340e+01 </wgt>
<wgt id='ctGRe_1p_cQj18_0p_cQj38_0p_cQj11_0p_cjj31_0p_ctu8_0p_ctd8_0p_ctj8_0p_cQu8_0p_cQd8_0p_ctu1_0p_ctd1_0p_ctj1_0p_cQu1_0p_cQd1_1p'> +4.4026340e+01 </wgt>
<wgt id='ctGRe_0p_cQj18_2p_cQj38_0p_cQj11_0p_cjj31_0p_ctu8_0p_ctd8_0p_ctj8_0p_cQu8_0p_cQd8_0p_ctu1_0p_ctd1_0p_ctj1_0p_cQu1_0p_cQd1_0p'> +6.1139206e+01 </wgt>
<wgt id='ctGRe_0p_cQj18_1p_cQj38_1p_cQj11_0p_cjj31_0p_ctu8_0p_ctd8_0p_ctj8_0p_cQu8_0p_cQd8_0p_ctu1_0p_ctd1_0p_ctj1_0p_cQu1_0p_cQd1_0p'> +6.1139206e+01 </wgt>
<wgt id='ctGRe_0p_cQj18_1p_cQj38_0p_cQj11_1p_cjj31_0p_ctu8_0p_ctd8_0p_ctj8_0p_cQu8_0p_cQd8_0p_ctu1_0p_ctd1_0p_ctj1_0p_cQu1_0p_cQd1_0p'> +6.1139206e+01 </wgt>
<wgt id='ctGRe_0p_cQj18_1p_cQj38_0p_cQj11_0p_cjj31_1p_ctu8_0p_ctd8_0p_ctj8_0p_cQu8_0p_cQd8_0p_ctu1_0p_ctd1_0p_ctj1_0p_cQu1_0p_cQd1_0p'> +6.1139206e+01 </wgt>
<wgt id='ctGRe_0p_cQj18_1p_cQj38_0p_cQj11_0p_cjj31_0p_ctu8_1p_ctd8_0p_ctj8_0p_cQu8_0p_cQd8_0p_ctu1_0p_ctd1_0p_ctj1_0p_cQu1_0p_cQd1_0p'> +6.1139206e+01 </wgt>
<wgt id='ctGRe_0p_cQj18_1p_cQj38_0p_cQj11_0p_cjj31_0p_ctu8_0p_ctd8_1p_ctj8_0p_cQu8_0p_cQd8_0p_ctu1_0p_ctd1_0p_ctj1_0p_cQu1_0p_cQd1_0p'> +6.1139206e+01 </wgt>
<wgt id='ctGRe_0p_cQj18_1p_cQj38_0p_cQj11_0p_cjj31_0p_ctu8_0p_ctd8_0p_ctj8_1p_cQu8_0p_cQd8_0p_ctu1_0p_ctd1_0p_ctj1_0p_cQu1_0p_cQd1_0p'> +6.1139206e+01 </wgt>
<wgt id='ctGRe_0p_cQj18_1p_cQj38_0p_cQj11_0p_cjj31_0p_ctu8_0p_ctd8_0p_ctj8_0p_cQu8_1p_cQd8_0p_ctu1_0p_ctd1_0p_ctj1_0p_cQu1_0p_cQd1_0p'> +6.1139206e+01 </wgt>
<wgt id='ctGRe_0p_cQj18_1p_cQj38_0p_cQj11_0p_cjj31_0p_ctu8_0p_ctd8_0p_ctj8_0p_cQu8_0p_cQd8_1p_ctu1_0p_ctd1_0p_ctj1_0p_cQu1_0p_cQd1_0p'> +6.1139206e+01 </wgt>
<wgt id='ctGRe_0p_cQj18_1p_cQj38_0p_cQj11_0p_cjj31_0p_ctu8_0p_ctd8_0p_ctj8_0p_cQu8_0p_cQd8_0p_ctu1_1p_ctd1_0p_ctj1_0p_cQu1_0p_cQd1_0p'> +6.1139206e+01 </wgt>
<wgt id='ctGRe_0p_cQj18_1p_cQj38_0p_cQj11_0p_cjj31_0p_ctu8_0p_ctd8_0p_ctj8_0p_cQu8_0p_cQd8_0p_ctu1_0p_ctd1_1p_ctj1_0p_cQu1_0p_cQd1_0p'> +6.1139206e+01 </wgt>
<wgt id='ctGRe_0p_cQj18_1p_cQj38_0p_cQj11_0p_cjj31_0p_ctu8_0p_ctd8_0p_ctj8_0p_cQu8_0p_cQd8_0p_ctu1_0p_ctd1_0p_ctj1_1p_cQu1_0p_cQd1_0p'> +6.1139206e+01 </wgt>
<wgt id='ctGRe_0p_cQj18_1p_cQj38_0p_cQj11_0p_cjj31_0p_ctu8_0p_ctd8_0p_ctj8_0p_cQu8_0p_cQd8_0p_ctu1_0p_ctd1_0p_ctj1_0p_cQu1_1p_cQd1_0p'> +6.1139206e+01 </wgt>
<wgt id='ctGRe_0p_cQj18_1p_cQj38_0p_cQj11_0p_cjj31_0p_ctu8_0p_ctd8_0p_ctj8_0p_cQu8_0p_cQd8_0p_ctu1_0p_ctd1_0p_ctj1_0p_cQu1_0p_cQd1_1p'> +6.1139206e+01 </wgt>
<wgt id='ctGRe_0p_cQj18_0p_cQj38_2p_cQj11_0p_cjj31_0p_ctu8_0p_ctd8_0p_ctj8_0p_cQu8_0p_cQd8_0p_ctu1_0p_ctd1_0p_ctj1_0p_cQu1_0p_cQd1_0p'> +6.1139206e+01 </wgt>
<wgt id='ctGRe_0p_cQj18_0p_cQj38_1p_cQj11_1p_cjj31_0p_ctu8_0p_ctd8_0p_ctj8_0p_cQu8_0p_cQd8_0p_ctu1_0p_ctd1_0p_ctj1_0p_cQu1_0p_cQd1_0p'> +6.1139206e+01 </wgt>
<wgt id='ctGRe_0p_cQj18_0p_cQj38_1p_cQj11_0p_cjj31_1p_ctu8_0p_ctd8_0p_ctj8_0p_cQu8_0p_cQd8_0p_ctu1_0p_ctd1_0p_ctj1_0p_cQu1_0p_cQd1_0p'> +6.1139206e+01 </wgt>
<wgt id='ctGRe_0p_cQj18_0p_cQj38_1p_cQj11_0p_cjj31_0p_ctu8_1p_ctd8_0p_ctj8_0p_cQu8_0p_cQd8_0p_ctu1_0p_ctd1_0p_ctj1_0p_cQu1_0p_cQd1_0p'> +6.1139206e+01 </wgt>
<wgt id='ctGRe_0p_cQj18_0p_cQj38_1p_cQj11_0p_cjj31_0p_ctu8_0p_ctd8_1p_ctj8_0p_cQu8_0p_cQd8_0p_ctu1_0p_ctd1_0p_ctj1_0p_cQu1_0p_cQd1_0p'> +6.1139206e+01 </wgt>
<wgt id='ctGRe_0p_cQj18_0p_cQj38_1p_cQj11_0p_cjj31_0p_ctu8_0p_ctd8_0p_ctj8_1p_cQu8_0p_cQd8_0p_ctu1_0p_ctd1_0p_ctj1_0p_cQu1_0p_cQd1_0p'> +6.1139206e+01 </wgt>
<wgt id='ctGRe_0p_cQj18_0p_cQj38_1p_cQj11_0p_cjj31_0p_ctu8_0p_ctd8_0p_ctj8_0p_cQu8_1p_cQd8_0p_ctu1_0p_ctd1_0p_ctj1_0p_cQu1_0p_cQd1_0p'> +6.1139206e+01 </wgt>
<wgt id='ctGRe_0p_cQj18_0p_cQj38_1p_cQj11_0p_cjj31_0p_ctu8_0p_ctd8_0p_ctj8_0p_cQu8_0p_cQd8_1p_ctu1_0p_ctd1_0p_ctj1_0p_cQu1_0p_cQd1_0p'> +6.1139206e+01 </wgt>
<wgt id='ctGRe_0p_cQj18_0p_cQj38_1p_cQj11_0p_cjj31_0p_ctu8_0p_ctd8_0p_ctj8_0p_cQu8_0p_cQd8_0p_ctu1_1p_ctd1_0p_ctj1_0p_cQu1_0p_cQd1_0p'> +6.1139206e+01 </wgt>
<wgt id='ctGRe_0p_cQj18_0p_cQj38_1p_cQj11_0p_cjj31_0p_ctu8_0p_ctd8_0p_ctj8_0p_cQu8_0p_cQd8_0p_ctu1_0p_ctd1_1p_ctj1_0p_cQu1_0p_cQd1_0p'> +6.1139206e+01 </wgt>
<wgt id='ctGRe_0p_cQj18_0p_cQj38_1p_cQj11_0p_cjj31_0p_ctu8_0p_ctd8_0p_ctj8_0p_cQu8_0p_cQd8_0p_ctu1_0p_ctd1_0p_ctj1_1p_cQu1_0p_cQd1_0p'> +6.1139206e+01 </wgt>
<wgt id='ctGRe_0p_cQj18_0p_cQj38_1p_cQj11_0p_cjj31_0p_ctu8_0p_ctd8_0p_ctj8_0p_cQu8_0p_cQd8_0p_ctu1_0p_ctd1_0p_ctj1_0p_cQu1_1p_cQd1_0p'> +6.1139206e+01 </wgt>
<wgt id='ctGRe_0p_cQj18_0p_cQj38_1p_cQj11_0p_cjj31_0p_ctu8_0p_ctd8_0p_ctj8_0p_cQu8_0p_cQd8_0p_ctu1_0p_ctd1_0p_ctj1_0p_cQu1_0p_cQd1_1p'> +6.1139206e+01 </wgt>
<wgt id='ctGRe_0p_cQj18_0p_cQj38_0p_cQj11_2p_cjj31_0p_ctu8_0p_ctd8_0p_ctj8_0p_cQu8_0p_cQd8_0p_ctu1_0p_ctd1_0p_ctj1_0p_cQu1_0p_cQd1_0p'> +6.1139206e+01 </wgt>
<wgt id='ctGRe_0p_cQj18_0p_cQj38_0p_cQj11_1p_cjj31_1p_ctu8_0p_ctd8_0p_ctj8_0p_cQu8_0p_cQd8_0p_ctu1_0p_ctd1_0p_ctj1_0p_cQu1_0p_cQd1_0p'> +6.1139206e+01 </wgt>
<wgt id='ctGRe_0p_cQj18_0p_cQj38_0p_cQj11_1p_cjj31_0p_ctu8_1p_ctd8_0p_ctj8_0p_cQu8_0p_cQd8_0p_ctu1_0p_ctd1_0p_ctj1_0p_cQu1_0p_cQd1_0p'> +6.1139206e+01 </wgt>
<wgt id='ctGRe_0p_cQj18_0p_cQj38_0p_cQj11_1p_cjj31_0p_ctu8_0p_ctd8_1p_ctj8_0p_cQu8_0p_cQd8_0p_ctu1_0p_ctd1_0p_ctj1_0p_cQu1_0p_cQd1_0p'> +6.1139206e+01 </wgt>
<wgt id='ctGRe_0p_cQj18_0p_cQj38_0p_cQj11_1p_cjj31_0p_ctu8_0p_ctd8_0p_ctj8_1p_cQu8_0p_cQd8_0p_ctu1_0p_ctd1_0p_ctj1_0p_cQu1_0p_cQd1_0p'> +6.1139206e+01 </wgt>
<wgt id='ctGRe_0p_cQj18_0p_cQj38_0p_cQj11_1p_cjj31_0p_ctu8_0p_ctd8_0p_ctj8_0p_cQu8_1p_cQd8_0p_ctu1_0p_ctd1_0p_ctj1_0p_cQu1_0p_cQd1_0p'> +6.1139206e+01 </wgt>
<wgt id='ctGRe_0p_cQj18_0p_cQj38_0p_cQj11_1p_cjj31_0p_ctu8_0p_ctd8_0p_ctj8_0p_cQu8_0p_cQd8_1p_ctu1_0p_ctd1_0p_ctj1_0p_cQu1_0p_cQd1_0p'> +6.1139206e+01 </wgt>
<wgt id='ctGRe_0p_cQj18_0p_cQj38_0p_cQj11_1p_cjj31_0p_ctu8_0p_ctd8_0p_ctj8_0p_cQu8_0p_cQd8_0p_ctu1_1p_ctd1_0p_ctj1_0p_cQu1_0p_cQd1_0p'> +6.1139206e+01 </wgt>
<wgt id='ctGRe_0p_cQj18_0p_cQj38_0p_cQj11_1p_cjj31_0p_ctu8_0p_ctd8_0p_ctj8_0p_cQu8_0p_cQd8_0p_ctu1_0p_ctd1_1p_ctj1_0p_cQu1_0p_cQd1_0p'> +6.1139206e+01 </wgt>
<wgt id='ctGRe_0p_cQj18_0p_cQj38_0p_cQj11_1p_cjj31_0p_ctu8_0p_ctd8_0p_ctj8_0p_cQu8_0p_cQd8_0p_ctu1_0p_ctd1_0p_ctj1_1p_cQu1_0p_cQd1_0p'> +6.1139206e+01 </wgt>
<wgt id='ctGRe_0p_cQj18_0p_cQj38_0p_cQj11_1p_cjj31_0p_ctu8_0p_ctd8_0p_ctj8_0p_cQu8_0p_cQd8_0p_ctu1_0p_ctd1_0p_ctj1_0p_cQu1_1p_cQd1_0p'> +6.1139206e+01 </wgt>
<wgt id='ctGRe_0p_cQj18_0p_cQj38_0p_cQj11_1p_cjj31_0p_ctu8_0p_ctd8_0p_ctj8_0p_cQu8_0p_cQd8_0p_ctu1_0p_ctd1_0p_ctj1_0p_cQu1_0p_cQd1_1p'> +6.1139206e+01 </wgt>
<wgt id='ctGRe_0p_cQj18_0p_cQj38_0p_cQj11_0p_cjj31_2p_ctu8_0p_ctd8_0p_ctj8_0p_cQu8_0p_cQd8_0p_ctu1_0p_ctd1_0p_ctj1_0p_cQu1_0p_cQd1_0p'> +6.1139206e+01 </wgt>
<wgt id='ctGRe_0p_cQj18_0p_cQj38_0p_cQj11_0p_cjj31_1p_ctu8_1p_ctd8_0p_ctj8_0p_cQu8_0p_cQd8_0p_ctu1_0p_ctd1_0p_ctj1_0p_cQu1_0p_cQd1_0p'> +6.1139206e+01 </wgt>
<wgt id='ctGRe_0p_cQj18_0p_cQj38_0p_cQj11_0p_cjj31_1p_ctu8_0p_ctd8_1p_ctj8_0p_cQu8_0p_cQd8_0p_ctu1_0p_ctd1_0p_ctj1_0p_cQu1_0p_cQd1_0p'> +6.1139206e+01 </wgt>
<wgt id='ctGRe_0p_cQj18_0p_cQj38_0p_cQj11_0p_cjj31_1p_ctu8_0p_ctd8_0p_ctj8_1p_cQu8_0p_cQd8_0p_ctu1_0p_ctd1_0p_ctj1_0p_cQu1_0p_cQd1_0p'> +6.1139206e+01 </wgt>
<wgt id='ctGRe_0p_cQj18_0p_cQj38_0p_cQj11_0p_cjj31_1p_ctu8_0p_ctd8_0p_ctj8_0p_cQu8_1p_cQd8_0p_ctu1_0p_ctd1_0p_ctj1_0p_cQu1_0p_cQd1_0p'> +6.1139206e+01 </wgt>
<wgt id='ctGRe_0p_cQj18_0p_cQj38_0p_cQj11_0p_cjj31_1p_ctu8_0p_ctd8_0p_ctj8_0p_cQu8_0p_cQd8_1p_ctu1_0p_ctd1_0p_ctj1_0p_cQu1_0p_cQd1_0p'> +6.1139206e+01 </wgt>
<wgt id='ctGRe_0p_cQj18_0p_cQj38_0p_cQj11_0p_cjj31_1p_ctu8_0p_ctd8_0p_ctj8_0p_cQu8_0p_cQd8_0p_ctu1_1p_ctd1_0p_ctj1_0p_cQu1_0p_cQd1_0p'> +6.1139206e+01 </wgt>
<wgt id='ctGRe_0p_cQj18_0p_cQj38_0p_cQj11_0p_cjj31_1p_ctu8_0p_ctd8_0p_ctj8_0p_cQu8_0p_cQd8_0p_ctu1_0p_ctd1_1p_ctj1_0p_cQu1_0p_cQd1_0p'> +6.1139206e+01 </wgt>
<wgt id='ctGRe_0p_cQj18_0p_cQj38_0p_cQj11_0p_cjj31_1p_ctu8_0p_ctd8_0p_ctj8_0p_cQu8_0p_cQd8_0p_ctu1_0p_ctd1_0p_ctj1_1p_cQu1_0p_cQd1_0p'> +6.1139206e+01 </wgt>
<wgt id='ctGRe_0p_cQj18_0p_cQj38_0p_cQj11_0p_cjj31_1p_ctu8_0p_ctd8_0p_ctj8_0p_cQu8_0p_cQd8_0p_ctu1_0p_ctd1_0p_ctj1_0p_cQu1_1p_cQd1_0p'> +6.1139206e+01 </wgt>
<wgt id='ctGRe_0p_cQj18_0p_cQj38_0p_cQj11_0p_cjj31_1p_ctu8_0p_ctd8_0p_ctj8_0p_cQu8_0p_cQd8_0p_ctu1_0p_ctd1_0p_ctj1_0p_cQu1_0p_cQd1_1p'> +6.1139206e+01 </wgt>
<wgt id='ctGRe_0p_cQj18_0p_cQj38_0p_cQj11_0p_cjj31_0p_ctu8_2p_ctd8_0p_ctj8_0p_cQu8_0p_cQd8_0p_ctu1_0p_ctd1_0p_ctj1_0p_cQu1_0p_cQd1_0p'> +6.1139206e+01 </wgt>
<wgt id='ctGRe_0p_cQj18_0p_cQj38_0p_cQj11_0p_cjj31_0p_ctu8_1p_ctd8_1p_ctj8_0p_cQu8_0p_cQd8_0p_ctu1_0p_ctd1_0p_ctj1_0p_cQu1_0p_cQd1_0p'> +6.1139206e+01 </wgt>
<wgt id='ctGRe_0p_cQj18_0p_cQj38_0p_cQj11_0p_cjj31_0p_ctu8_1p_ctd8_0p_ctj8_1p_cQu8_0p_cQd8_0p_ctu1_0p_ctd1_0p_ctj1_0p_cQu1_0p_cQd1_0p'> +6.1139206e+01 </wgt>
<wgt id='ctGRe_0p_cQj18_0p_cQj38_0p_cQj11_0p_cjj31_0p_ctu8_1p_ctd8_0p_ctj8_0p_cQu8_1p_cQd8_0p_ctu1_0p_ctd1_0p_ctj1_0p_cQu1_0p_cQd1_0p'> +6.1139206e+01 </wgt>
<wgt id='ctGRe_0p_cQj18_0p_cQj38_0p_cQj11_0p_cjj31_0p_ctu8_1p_ctd8_0p_ctj8_0p_cQu8_0p_cQd8_1p_ctu1_0p_ctd1_0p_ctj1_0p_cQu1_0p_cQd1_0p'> +6.1139206e+01 </wgt>
<wgt id='ctGRe_0p_cQj18_0p_cQj38_0p_cQj11_0p_cjj31_0p_ctu8_1p_ctd8_0p_ctj8_0p_cQu8_0p_cQd8_0p_ctu1_1p_ctd1_0p_ctj1_0p_cQu1_0p_cQd1_0p'> +6.1139206e+01 </wgt>
<wgt id='ctGRe_0p_cQj18_0p_cQj38_0p_cQj11_0p_cjj31_0p_ctu8_1p_ctd8_0p_ctj8_0p_cQu8_0p_cQd8_0p_ctu1_0p_ctd1_1p_ctj1_0p_cQu1_0p_cQd1_0p'> +6.1139206e+01 </wgt>
<wgt id='ctGRe_0p_cQj18_0p_cQj38_0p_cQj11_0p_cjj31_0p_ctu8_1p_ctd8_0p_ctj8_0p_cQu8_0p_cQd8_0p_ctu1_0p_ctd1_0p_ctj1_1p_cQu1_0p_cQd1_0p'> +6.1139206e+01 </wgt>
<wgt id='ctGRe_0p_cQj18_0p_cQj38_0p_cQj11_0p_cjj31_0p_ctu8_1p_ctd8_0p_ctj8_0p_cQu8_0p_cQd8_0p_ctu1_0p_ctd1_0p_ctj1_0p_cQu1_1p_cQd1_0p'> +6.1139206e+01 </wgt>
<wgt id='ctGRe_0p_cQj18_0p_cQj38_0p_cQj11_0p_cjj31_0p_ctu8_1p_ctd8_0p_ctj8_0p_cQu8_0p_cQd8_0p_ctu1_0p_ctd1_0p_ctj1_0p_cQu1_0p_cQd1_1p'> +6.1139206e+01 </wgt>
<wgt id='ctGRe_0p_cQj18_0p_cQj38_0p_cQj11_0p_cjj31_0p_ctu8_0p_ctd8_2p_ctj8_0p_cQu8_0p_cQd8_0p_ctu1_0p_ctd1_0p_ctj1_0p_cQu1_0p_cQd1_0p'> +6.1139206e+01 </wgt>
<wgt id='ctGRe_0p_cQj18_0p_cQj38_0p_cQj11_0p_cjj31_0p_ctu8_0p_ctd8_1p_ctj8_1p_cQu8_0p_cQd8_0p_ctu1_0p_ctd1_0p_ctj1_0p_cQu1_0p_cQd1_0p'> +6.1139206e+01 </wgt>
<wgt id='ctGRe_0p_cQj18_0p_cQj38_0p_cQj11_0p_cjj31_0p_ctu8_0p_ctd8_1p_ctj8_0p_cQu8_1p_cQd8_0p_ctu1_0p_ctd1_0p_ctj1_0p_cQu1_0p_cQd1_0p'> +6.1139206e+01 </wgt>
<wgt id='ctGRe_0p_cQj18_0p_cQj38_0p_cQj11_0p_cjj31_0p_ctu8_0p_ctd8_1p_ctj8_0p_cQu8_0p_cQd8_1p_ctu1_0p_ctd1_0p_ctj1_0p_cQu1_0p_cQd1_0p'> +6.1139206e+01 </wgt>
<wgt id='ctGRe_0p_cQj18_0p_cQj38_0p_cQj11_0p_cjj31_0p_ctu8_0p_ctd8_1p_ctj8_0p_cQu8_0p_cQd8_0p_ctu1_1p_ctd1_0p_ctj1_0p_cQu1_0p_cQd1_0p'> +6.1139206e+01 </wgt>
<wgt id='ctGRe_0p_cQj18_0p_cQj38_0p_cQj11_0p_cjj31_0p_ctu8_0p_ctd8_1p_ctj8_0p_cQu8_0p_cQd8_0p_ctu1_0p_ctd1_1p_ctj1_0p_cQu1_0p_cQd1_0p'> +6.1139206e+01 </wgt>
<wgt id='ctGRe_0p_cQj18_0p_cQj38_0p_cQj11_0p_cjj31_0p_ctu8_0p_ctd8_1p_ctj8_0p_cQu8_0p_cQd8_0p_ctu1_0p_ctd1_0p_ctj1_1p_cQu1_0p_cQd1_0p'> +6.1139206e+01 </wgt>
<wgt id='ctGRe_0p_cQj18_0p_cQj38_0p_cQj11_0p_cjj31_0p_ctu8_0p_ctd8_1p_ctj8_0p_cQu8_0p_cQd8_0p_ctu1_0p_ctd1_0p_ctj1_0p_cQu1_1p_cQd1_0p'> +6.1139206e+01 </wgt>
<wgt id='ctGRe_0p_cQj18_0p_cQj38_0p_cQj11_0p_cjj31_0p_ctu8_0p_ctd8_1p_ctj8_0p_cQu8_0p_cQd8_0p_ctu1_0p_ctd1_0p_ctj1_0p_cQu1_0p_cQd1_1p'> +6.1139206e+01 </wgt>
<wgt id='ctGRe_0p_cQj18_0p_cQj38_0p_cQj11_0p_cjj31_0p_ctu8_0p_ctd8_0p_ctj8_2p_cQu8_0p_cQd8_0p_ctu1_0p_ctd1_0p_ctj1_0p_cQu1_0p_cQd1_0p'> +6.1139206e+01 </wgt>
<wgt id='ctGRe_0p_cQj18_0p_cQj38_0p_cQj11_0p_cjj31_0p_ctu8_0p_ctd8_0p_ctj8_1p_cQu8_1p_cQd8_0p_ctu1_0p_ctd1_0p_ctj1_0p_cQu1_0p_cQd1_0p'> +6.1139206e+01 </wgt>
<wgt id='ctGRe_0p_cQj18_0p_cQj38_0p_cQj11_0p_cjj31_0p_ctu8_0p_ctd8_0p_ctj8_1p_cQu8_0p_cQd8_1p_ctu1_0p_ctd1_0p_ctj1_0p_cQu1_0p_cQd1_0p'> +6.1139206e+01 </wgt>
<wgt id='ctGRe_0p_cQj18_0p_cQj38_0p_cQj11_0p_cjj31_0p_ctu8_0p_ctd8_0p_ctj8_1p_cQu8_0p_cQd8_0p_ctu1_1p_ctd1_0p_ctj1_0p_cQu1_0p_cQd1_0p'> +6.1139206e+01 </wgt>
<wgt id='ctGRe_0p_cQj18_0p_cQj38_0p_cQj11_0p_cjj31_0p_ctu8_0p_ctd8_0p_ctj8_1p_cQu8_0p_cQd8_0p_ctu1_0p_ctd1_1p_ctj1_0p_cQu1_0p_cQd1_0p'> +6.1139206e+01 </wgt>
<wgt id='ctGRe_0p_cQj18_0p_cQj38_0p_cQj11_0p_cjj31_0p_ctu8_0p_ctd8_0p_ctj8_1p_cQu8_0p_cQd8_0p_ctu1_0p_ctd1_0p_ctj1_1p_cQu1_0p_cQd1_0p'> +6.1139206e+01 </wgt>
<wgt id='ctGRe_0p_cQj18_0p_cQj38_0p_cQj11_0p_cjj31_0p_ctu8_0p_ctd8_0p_ctj8_1p_cQu8_0p_cQd8_0p_ctu1_0p_ctd1_0p_ctj1_0p_cQu1_1p_cQd1_0p'> +6.1139206e+01 </wgt>
<wgt id='ctGRe_0p_cQj18_0p_cQj38_0p_cQj11_0p_cjj31_0p_ctu8_0p_ctd8_0p_ctj8_1p_cQu8_0p_cQd8_0p_ctu1_0p_ctd1_0p_ctj1_0p_cQu1_0p_cQd1_1p'> +6.1139206e+01 </wgt>
<wgt id='ctGRe_0p_cQj18_0p_cQj38_0p_cQj11_0p_cjj31_0p_ctu8_0p_ctd8_0p_ctj8_0p_cQu8_2p_cQd8_0p_ctu1_0p_ctd1_0p_ctj1_0p_cQu1_0p_cQd1_0p'> +6.1139206e+01 </wgt>
<wgt id='ctGRe_0p_cQj18_0p_cQj38_0p_cQj11_0p_cjj31_0p_ctu8_0p_ctd8_0p_ctj8_0p_cQu8_1p_cQd8_1p_ctu1_0p_ctd1_0p_ctj1_0p_cQu1_0p_cQd1_0p'> +6.1139206e+01 </wgt>
<wgt id='ctGRe_0p_cQj18_0p_cQj38_0p_cQj11_0p_cjj31_0p_ctu8_0p_ctd8_0p_ctj8_0p_cQu8_1p_cQd8_0p_ctu1_1p_ctd1_0p_ctj1_0p_cQu1_0p_cQd1_0p'> +6.1139206e+01 </wgt>
<wgt id='ctGRe_0p_cQj18_0p_cQj38_0p_cQj11_0p_cjj31_0p_ctu8_0p_ctd8_0p_ctj8_0p_cQu8_1p_cQd8_0p_ctu1_0p_ctd1_1p_ctj1_0p_cQu1_0p_cQd1_0p'> +6.1139206e+01 </wgt>
<wgt id='ctGRe_0p_cQj18_0p_cQj38_0p_cQj11_0p_cjj31_0p_ctu8_0p_ctd8_0p_ctj8_0p_cQu8_1p_cQd8_0p_ctu1_0p_ctd1_0p_ctj1_1p_cQu1_0p_cQd1_0p'> +6.1139206e+01 </wgt>
<wgt id='ctGRe_0p_cQj18_0p_cQj38_0p_cQj11_0p_cjj31_0p_ctu8_0p_ctd8_0p_ctj8_0p_cQu8_1p_cQd8_0p_ctu1_0p_ctd1_0p_ctj1_0p_cQu1_1p_cQd1_0p'> +6.1139206e+01 </wgt>
<wgt id='ctGRe_0p_cQj18_0p_cQj38_0p_cQj11_0p_cjj31_0p_ctu8_0p_ctd8_0p_ctj8_0p_cQu8_1p_cQd8_0p_ctu1_0p_ctd1_0p_ctj1_0p_cQu1_0p_cQd1_1p'> +6.1139206e+01 </wgt>
<wgt id='ctGRe_0p_cQj18_0p_cQj38_0p_cQj11_0p_cjj31_0p_ctu8_0p_ctd8_0p_ctj8_0p_cQu8_0p_cQd8_2p_ctu1_0p_ctd1_0p_ctj1_0p_cQu1_0p_cQd1_0p'> +6.1139206e+01 </wgt>
<wgt id='ctGRe_0p_cQj18_0p_cQj38_0p_cQj11_0p_cjj31_0p_ctu8_0p_ctd8_0p_ctj8_0p_cQu8_0p_cQd8_1p_ctu1_1p_ctd1_0p_ctj1_0p_cQu1_0p_cQd1_0p'> +6.1139206e+01 </wgt>
<wgt id='ctGRe_0p_cQj18_0p_cQj38_0p_cQj11_0p_cjj31_0p_ctu8_0p_ctd8_0p_ctj8_0p_cQu8_0p_cQd8_1p_ctu1_0p_ctd1_1p_ctj1_0p_cQu1_0p_cQd1_0p'> +6.1139206e+01 </wgt>
<wgt id='ctGRe_0p_cQj18_0p_cQj38_0p_cQj11_0p_cjj31_0p_ctu8_0p_ctd8_0p_ctj8_0p_cQu8_0p_cQd8_1p_ctu1_0p_ctd1_0p_ctj1_1p_cQu1_0p_cQd1_0p'> +6.1139206e+01 </wgt>
<wgt id='ctGRe_0p_cQj18_0p_cQj38_0p_cQj11_0p_cjj31_0p_ctu8_0p_ctd8_0p_ctj8_0p_cQu8_0p_cQd8_1p_ctu1_0p_ctd1_0p_ctj1_0p_cQu1_1p_cQd1_0p'> +6.1139206e+01 </wgt>
<wgt id='ctGRe_0p_cQj18_0p_cQj38_0p_cQj11_0p_cjj31_0p_ctu8_0p_ctd8_0p_ctj8_0p_cQu8_0p_cQd8_1p_ctu1_0p_ctd1_0p_ctj1_0p_cQu1_0p_cQd1_1p'> +6.1139206e+01 </wgt>
<wgt id='ctGRe_0p_cQj18_0p_cQj38_0p_cQj11_0p_cjj31_0p_ctu8_0p_ctd8_0p_ctj8_0p_cQu8_0p_cQd8_0p_ctu1_2p_ctd1_0p_ctj1_0p_cQu1_0p_cQd1_0p'> +6.1139206e+01 </wgt>
<wgt id='ctGRe_0p_cQj18_0p_cQj38_0p_cQj11_0p_cjj31_0p_ctu8_0p_ctd8_0p_ctj8_0p_cQu8_0p_cQd8_0p_ctu1_1p_ctd1_1p_ctj1_0p_cQu1_0p_cQd1_0p'> +6.1139206e+01 </wgt>
<wgt id='ctGRe_0p_cQj18_0p_cQj38_0p_cQj11_0p_cjj31_0p_ctu8_0p_ctd8_0p_ctj8_0p_cQu8_0p_cQd8_0p_ctu1_1p_ctd1_0p_ctj1_1p_cQu1_0p_cQd1_0p'> +6.1139206e+01 </wgt>
<wgt id='ctGRe_0p_cQj18_0p_cQj38_0p_cQj11_0p_cjj31_0p_ctu8_0p_ctd8_0p_ctj8_0p_cQu8_0p_cQd8_0p_ctu1_1p_ctd1_0p_ctj1_0p_cQu1_1p_cQd1_0p'> +6.1139206e+01 </wgt>
<wgt id='ctGRe_0p_cQj18_0p_cQj38_0p_cQj11_0p_cjj31_0p_ctu8_0p_ctd8_0p_ctj8_0p_cQu8_0p_cQd8_0p_ctu1_1p_ctd1_0p_ctj1_0p_cQu1_0p_cQd1_1p'> +6.1139206e+01 </wgt>
<wgt id='ctGRe_0p_cQj18_0p_cQj38_0p_cQj11_0p_cjj31_0p_ctu8_0p_ctd8_0p_ctj8_0p_cQu8_0p_cQd8_0p_ctu1_0p_ctd1_2p_ctj1_0p_cQu1_0p_cQd1_0p'> +6.1139206e+01 </wgt>
<wgt id='ctGRe_0p_cQj18_0p_cQj38_0p_cQj11_0p_cjj31_0p_ctu8_0p_ctd8_0p_ctj8_0p_cQu8_0p_cQd8_0p_ctu1_0p_ctd1_1p_ctj1_1p_cQu1_0p_cQd1_0p'> +6.1139206e+01 </wgt>
<wgt id='ctGRe_0p_cQj18_0p_cQj38_0p_cQj11_0p_cjj31_0p_ctu8_0p_ctd8_0p_ctj8_0p_cQu8_0p_cQd8_0p_ctu1_0p_ctd1_1p_ctj1_0p_cQu1_1p_cQd1_0p'> +6.1139206e+01 </wgt>
<wgt id='ctGRe_0p_cQj18_0p_cQj38_0p_cQj11_0p_cjj31_0p_ctu8_0p_ctd8_0p_ctj8_0p_cQu8_0p_cQd8_0p_ctu1_0p_ctd1_1p_ctj1_0p_cQu1_0p_cQd1_1p'> +6.1139206e+01 </wgt>
<wgt id='ctGRe_0p_cQj18_0p_cQj38_0p_cQj11_0p_cjj31_0p_ctu8_0p_ctd8_0p_ctj8_0p_cQu8_0p_cQd8_0p_ctu1_0p_ctd1_0p_ctj1_2p_cQu1_0p_cQd1_0p'> +6.1139206e+01 </wgt>
<wgt id='ctGRe_0p_cQj18_0p_cQj38_0p_cQj11_0p_cjj31_0p_ctu8_0p_ctd8_0p_ctj8_0p_cQu8_0p_cQd8_0p_ctu1_0p_ctd1_0p_ctj1_1p_cQu1_1p_cQd1_0p'> +6.1139206e+01 </wgt>
<wgt id='ctGRe_0p_cQj18_0p_cQj38_0p_cQj11_0p_cjj31_0p_ctu8_0p_ctd8_0p_ctj8_0p_cQu8_0p_cQd8_0p_ctu1_0p_ctd1_0p_ctj1_1p_cQu1_0p_cQd1_1p'> +6.1139206e+01 </wgt>
<wgt id='ctGRe_0p_cQj18_0p_cQj38_0p_cQj11_0p_cjj31_0p_ctu8_0p_ctd8_0p_ctj8_0p_cQu8_0p_cQd8_0p_ctu1_0p_ctd1_0p_ctj1_0p_cQu1_2p_cQd1_0p'> +6.1139206e+01 </wgt>
<wgt id='ctGRe_0p_cQj18_0p_cQj38_0p_cQj11_0p_cjj31_0p_ctu8_0p_ctd8_0p_ctj8_0p_cQu8_0p_cQd8_0p_ctu1_0p_ctd1_0p_ctj1_0p_cQu1_1p_cQd1_1p'> +6.1139206e+01 </wgt>
<wgt id='ctGRe_0p_cQj18_0p_cQj38_0p_cQj11_0p_cjj31_0p_ctu8_0p_ctd8_0p_ctj8_0p_cQu8_0p_cQd8_0p_ctu1_0p_ctd1_0p_ctj1_0p_cQu1_0p_cQd1_2p'> +6.1139206e+01 </wgt>
<wgt id='1001'> +6.1139206e+01 </wgt>
<wgt id='1002'> +6.7722642e+01 </wgt>
<wgt id='1003'> +6.7712730e+01 </wgt>
<wgt id='1004'> +8.5292931e+01 </wgt>
<wgt id='1005'> +6.0982976e+01 </wgt>
<wgt id='1006'> +5.1000703e+01 </wgt>
<wgt id='1007'> +5.7308669e+01 </wgt>
<wgt id='1008'> +5.7300827e+01 </wgt>
<wgt id='1009'> +7.1038293e+01 </wgt>
<wgt id='1010'> +5.1947677e+01 </wgt>
<wgt id='1011'> +7.4696766e+01 </wgt>
<wgt id='1012'> +8.1312883e+01 </wgt>
<wgt id='1013'> +8.1300057e+01 </wgt>
<wgt id='1014'> +1.0440672e+02 </wgt>
<wgt id='1015'> +7.2642797e+01 </wgt>
<wgt id='1016'> +6.3666408e+01 </wgt>
<wgt id='1017'> +6.4402073e+01 </wgt>
<wgt id='1018'> +6.4392577e+01 </wgt>
<wgt id='1019'> +8.1300057e+01 </wgt>
<wgt id='1020'> +5.7957449e+01 </wgt>
<wgt id='1021'> +5.3108828e+01 </wgt>
<wgt id='1022'> +5.4498716e+01 </wgt>
<wgt id='1023'> +5.4491200e+01 </wgt>
<wgt id='1024'> +6.7712730e+01 </wgt>
<wgt id='1025'> +4.9370415e+01 </wgt>
<wgt id='1026'> +7.7784372e+01 </wgt>
<wgt id='1027'> +7.7325958e+01 </wgt>
<wgt id='1028'> +7.7313677e+01 </wgt>
<wgt id='1029'> +9.9519056e+01 </wgt>
<wgt id='1030'> +6.9038796e+01 </wgt>
<wgt id='1031'> +5.5382057e+01 </wgt>
<wgt id='1032'> +7.1048540e+01 </wgt>
<wgt id='1033'> +7.1038293e+01 </wgt>
<wgt id='1034'> +8.9068111e+01 </wgt>
<wgt id='1035'> +6.4060607e+01 </wgt>
<wgt id='1036'> +4.6198242e+01 </wgt>
<wgt id='1037'> +6.0123131e+01 </wgt>
<wgt id='1038'> +6.0115031e+01 </wgt>
<wgt id='1039'> +7.4182543e+01 </wgt>
<wgt id='1040'> +5.4569323e+01 </wgt>
<wgt id='1041'> +6.7662975e+01 </wgt>
<wgt id='1042'> +8.5306205e+01 </wgt>
<wgt id='1043'> +8.5292931e+01 </wgt>
<wgt id='1044'> +1.0902790e+02 </wgt>
<wgt id='1045'> +7.6308865e+01 </wgt>
<wgt id='1046'> +7.6084062e+01 </wgt>
<wgt id='1047'> +5.0918437e+01 </wgt>
<wgt id='1048'> +6.1139206e+01 </wgt>
<wgt id='1049'> +6.1187465e+01 </wgt>
<wgt id='1050'> +6.1282066e+01 </wgt>
<wgt id='1051'> +6.0925703e+01 </wgt>
<wgt id='1052'> +6.1652843e+01 </wgt>
<wgt id='1053'> +6.0770356e+01 </wgt>
<wgt id='1054'> +6.1147860e+01 </wgt>
<wgt id='1055'> +6.1315009e+01 </wgt>
<wgt id='1056'> +6.1179348e+01 </wgt>
<wgt id='1057'> +6.1500918e+01 </wgt>
<wgt id='1058'> +6.1164804e+01 </wgt>
<wgt id='1059'> +6.1189052e+01 </wgt>
<wgt id='1060'> +6.1523313e+01 </wgt>
<wgt id='1061'> +6.0883933e+01 </wgt>
<wgt id='1062'> +6.1072429e+01 </wgt>
<wgt id='1063'> +6.1395546e+01 </wgt>
<wgt id='1064'> +6.0660682e+01 </wgt>
<wgt id='1065'> +6.0776555e+01 </wgt>
<wgt id='1066'> +6.0446551e+01 </wgt>
<wgt id='1067'> +6.1337617e+01 </wgt>
<wgt id='1068'> +6.0438981e+01 </wgt>
<wgt id='1069'> +6.1386424e+01 </wgt>
<wgt id='1070'> +6.1043653e+01 </wgt>
<wgt id='1071'> +6.0549212e+01 </wgt>
<wgt id='1072'> +6.0546361e+01 </wgt>
<wgt id='1073'> +6.1523696e+01 </wgt>
<wgt id='1074'> +6.1541283e+01 </wgt>
<wgt id='1075'> +6.2073215e+01 </wgt>
<wgt id='1076'> +5.9859745e+01 </wgt>
<wgt id='1077'> +6.0715464e+01 </wgt>
<wgt id='1078'> +6.1375309e+01 </wgt>
<wgt id='1079'> +6.0951654e+01 </wgt>
<wgt id='1080'> +6.1160365e+01 </wgt>
<wgt id='1081'> +6.0902221e+01 </wgt>
<wgt id='1082'> +6.0783346e+01 </wgt>
<wgt id='1083'> +6.1064316e+01 </wgt>
<wgt id='1084'> +6.1118335e+01 </wgt>
<wgt id='1085'> +6.0960791e+01 </wgt>
<wgt id='1086'> +6.1038984e+01 </wgt>
<wgt id='1087'> +6.0945265e+01 </wgt>
<wgt id='1088'> +6.1009915e+01 </wgt>
<wgt id='1089'> +6.0931127e+01 </wgt>
<wgt id='1090'> +6.1272889e+01 </wgt>
<wgt id='1091'> +6.1155465e+01 </wgt>
<wgt id='1092'> +6.1275839e+01 </wgt>
<wgt id='1093'> +6.1198783e+01 </wgt>
<wgt id='1094'> +6.1059469e+01 </wgt>
<wgt id='1095'> +6.1200216e+01 </wgt>
<wgt id='1096'> +6.1175337e+01 </wgt>
<wgt id='1097'> +6.1092404e+01 </wgt>
<wgt id='1098'> +6.1028755e+01 </wgt>
<wgt id='1099'> +6.1014167e+01 </wgt>
<wgt id='1100'> +6.1340988e+01 </wgt>
<wgt id='1101'> +6.1196840e+01 </wgt>
<wgt id='1102'> +6.1125561e+01 </wgt>
<wgt id='1103'> +6.1045262e+01 </wgt>
<wgt id='1104'> +6.1064687e+01 </wgt>
<wgt id='1105'> +6.1189821e+01 </wgt>
<wgt id='1106'> +6.1204874e+01 </wgt>
<wgt id='1107'> +6.1167754e+01 </wgt>
<wgt id='1108'> +6.1073994e+01 </wgt>
<wgt id='1109'> +6.1058356e+01 </wgt>
<wgt id='1110'> +6.1230729e+01 </wgt>
<wgt id='1111'> +6.1101913e+01 </wgt>
<wgt id='1112'> +6.1150868e+01 </wgt>
<wgt id='1113'> +6.1211570e+01 </wgt>
<wgt id='1114'> +6.1094182e+01 </wgt>
<wgt id='1115'> +6.1077501e+01 </wgt>
<wgt id='1116'> +6.1235143e+01 </wgt>
<wgt id='1117'> +6.1127759e+01 </wgt>
<wgt id='1118'> +6.1138045e+01 </wgt>
<wgt id='1119'> +6.1076009e+01 </wgt>
<wgt id='1120'> +6.1132106e+01 </wgt>
<wgt id='1121'> +6.1177986e+01 </wgt>
<wgt id='1122'> +6.1121617e+01 </wgt>
<wgt id='1123'> +6.1142094e+01 </wgt>
<wgt id='1124'> +6.1130798e+01 </wgt>
<wgt id='1125'> +6.1192315e+01 </wgt>
<wgt id='1126'> +6.1157579e+01 </wgt>
<wgt id='1127'> +6.1107713e+01 </wgt>
<wgt id='1128'> +6.1158517e+01 </wgt>
<wgt id='1129'> +6.1123030e+01 </wgt>
<wgt id='1130'> +6.1157938e+01 </wgt>
<wgt id='1131'> +6.1214554e+01 </wgt>
<wgt id='1132'> +6.1142941e+01 </wgt>
<wgt id='1133'> +6.1159910e+01 </wgt>
<wgt id='1134'> +6.1123212e+01 </wgt>
<wgt id='1135'> +6.1146576e+01 </wgt>
<wgt id='1136'> +6.1136749e+01 </wgt>
<wgt id='1137'> +6.1124463e+01 </wgt>
<wgt id='1138'> +6.1165706e+01 </wgt>
<wgt id='1139'> +6.1150937e+01 </wgt>
<wgt id='1140'> +6.1179457e+01 </wgt>
<wgt id='1141'> +6.1109135e+01 </wgt>
<wgt id='1142'> +6.1131921e+01 </wgt>
<wgt id='1143'> +6.1171150e+01 </wgt>
<wgt id='1144'> +6.1115469e+01 </wgt>
<wgt id='1145'> +6.1157542e+01 </wgt>
<wgt id='1146'> +6.1140687e+01 </wgt>
<wgt id='1147'> +6.1152832e+01 </wgt>
<wgt id='1148'> +6.1139206e+01 </wgt>
<wgt id='1149'> +5.8759920e+01 </wgt>
<wgt id='1150'> +6.2203843e+01 </wgt>
<wgt id='1151'> +6.1139206e+01 </wgt>
<wgt id='1152'> +6.6211084e+01 </wgt>
<wgt id='1153'> +6.0091191e+01 </wgt>
<wgt id='1154'> +6.1997142e+01 </wgt>
<wgt id='1155'> +6.0629154e+01 </wgt>
<wgt id='1156'> +6.1683283e+01 </wgt>
<wgt id='1157'> +6.0150917e+01 </wgt>
<wgt id='1158'> +5.7892337e+01 </wgt>
<wgt id='1159'> +5.6769193e+01 </wgt>
<wgt id='1160'> +5.9496969e+01 </wgt>
<wgt id='1161'> +6.9443463e+01 </wgt>
<wgt id='1162'> +6.4588534e+01 </wgt>
<wgt id='1163'> +5.7334293e+01 </wgt>
<wgt id='1164'> +6.3928236e+01 </wgt>
<wgt id='1165'> +5.9857186e+01 </wgt>
<wgt id='1166'> +6.1350675e+01 </wgt>
<wgt id='1167'> +6.0430911e+01 </wgt>
<wgt id='1168'> +5.9490481e+01 </wgt>
<wgt id='1169'> +5.8356200e+01 </wgt>
<wgt id='1170'> +6.0204095e+01 </wgt>
<wgt id='1171'> +6.0696910e+01 </wgt>
<wgt id='1172'> +6.2895149e+01 </wgt>
<wgt id='1173'> +5.9784502e+01 </wgt>
<wgt id='1174'> +5.9524546e+01 </wgt>
<wgt id='1175'> +6.0297227e+01 </wgt>
<wgt id='1176'> +5.8126779e+01 </wgt>
<wgt id='1177'> +6.1902431e+01 </wgt>
<wgt id='1178'> +6.4081169e+01 </wgt>
<wgt id='1179'> +5.6531334e+01 </wgt>
<wgt id='1180'> +5.9888405e+01 </wgt>
<wgt id='1181'> +5.8756483e+01 </wgt>
<wgt id='1182'> +7.0365758e+01 </wgt>
<wgt id='1183'> +6.1406401e+01 </wgt>
<wgt id='1184'> +5.8173269e+01 </wgt>
<wgt id='1185'> +5.9536569e+01 </wgt>
<wgt id='1186'> +7.0676022e+01 </wgt>
<wgt id='1187'> +6.2786109e+01 </wgt>
<wgt id='1188'> +6.3455561e+01 </wgt>
<wgt id='1189'> +6.0985076e+01 </wgt>
<wgt id='1190'> +6.2833839e+01 </wgt>
<wgt id='1191'> +5.8584958e+01 </wgt>
<wgt id='1192'> +5.9829037e+01 </wgt>
<wgt id='1193'> +5.8819481e+01 </wgt>
<wgt id='1194'> +6.1661510e+01 </wgt>
<wgt id='1195'> +6.0565636e+01 </wgt>
<wgt id='1196'> +6.0208737e+01 </wgt>
<wgt id='1197'> +6.0214729e+01 </wgt>
<wgt id='1198'> +6.2803878e+01 </wgt>
<wgt id='1199'> +6.2596343e+01 </wgt>
<wgt id='1200'> +6.5048439e+01 </wgt>
<wgt id='1201'> +6.6880326e+01 </wgt>
<wgt id='1202'> +6.0215507e+01 </wgt>
<wgt id='1203'> +5.9773683e+01 </wgt>
<wgt id='1204'> +6.2594467e+01 </wgt>
<wgt id='1205'> +5.9858462e+01 </wgt>
<wgt id='1206'> +6.0718393e+01 </wgt>
<wgt id='1207'> +5.9210709e+01 </wgt>
<wgt id='1208'> +6.1203019e+01 </wgt>
<wgt id='1209'> +6.2752655e+01 </wgt>
<wgt id='1210'> +5.6973955e+01 </wgt>
<wgt id='1211'> +6.1631971e+01 </wgt>
<wgt id='1212'> +6.3360484e+01 </wgt>
<wgt id='1213'> +6.3441172e+01 </wgt>
<wgt id='1214'> +6.3588006e+01 </wgt>
<wgt id='1215'> +6.2070179e+01 </wgt>
<wgt id='1216'> +5.9291786e+01 </wgt>
<wgt id='1217'> +6.0893157e+01 </wgt>
<wgt id='1218'> +6.1117800e+01 </wgt>
<wgt id='1219'> +5.9207723e+01 </wgt>
<wgt id='1220'> +6.0136128e+01 </wgt>
<wgt id='1221'> +6.2565063e+01 </wgt>
<wgt id='1222'> +6.1387895e+01 </wgt>
<wgt id='1223'> +6.4027625e+01 </wgt>
<wgt id='1224'> +5.9167305e+01 </wgt>
<wgt id='1225'> +5.9594036e+01 </wgt>
<wgt id='1226'> +6.0576545e+01 </wgt>
<wgt id='1227'> +6.5220017e+01 </wgt>
<wgt id='1228'> +6.1726868e+01 </wgt>
<wgt id='1229'> +6.2023108e+01 </wgt>
<wgt id='1230'> +6.1573495e+01 </wgt>
<wgt id='1231'> +6.4554200e+01 </wgt>
<wgt id='1232'> +6.1723517e+01 </wgt>
<wgt id='1233'> +6.0430911e+01 </wgt>
<wgt id='1234'> +5.9824468e+01 </wgt>
<wgt id='1235'> +5.8722056e+01 </wgt>
<wgt id='1236'> +6.2730319e+01 </wgt>
<wgt id='1237'> +6.1683758e+01 </wgt>
<wgt id='1238'> +5.9385030e+01 </wgt>
<wgt id='1239'> +5.9719785e+01 </wgt>
<wgt id='1240'> +5.9726314e+01 </wgt>
<wgt id='1241'> +5.6799911e+01 </wgt>
<wgt id='1242'> +5.8156280e+01 </wgt>
<wgt id='1243'> +6.1505368e+01 </wgt>
<wgt id='1244'> +6.0275233e+01 </wgt>
<wgt id='1245'> +6.1065995e+01 </wgt>
<wgt id='1246'> +5.9630027e+01 </wgt>
<wgt id='1247'> +6.0739703e+01 </wgt>
<wgt id='1248'> +6.5737418e+01 </wgt>
<wgt id='1249'> +5.9644296e+01 </wgt>
<wgt id='1250'> +5.8750551e+01 </wgt>
<wgt id='1251'> +6.0089809e+01 </wgt>
<wgt id='1252'> +6.0427161e+01 </wgt>
<wgt id='1253'> +6.0289849e+01 </wgt>
<wgt id='1254'> +6.0463384e+01 </wgt>
<wgt id='1255'> +6.0373268e+01 </wgt>
<wgt id='1256'> +6.0572690e+01 </wgt>
<wgt id='1257'> +6.0380210e+01 </wgt>
<wgt id='1258'> +6.0175168e+01 </wgt>
<wgt id='1259'> +6.0318929e+01 </wgt>
<wgt id='1260'> +6.0561102e+01 </wgt>
<wgt id='1261'> +6.0451925e+01 </wgt>
<wgt id='1262'> +6.0107135e+01 </wgt>
<wgt id='1263'> +6.0829667e+01 </wgt>
<wgt id='1264'> +6.0809240e+01 </wgt>
<wgt id='1265'> +6.0637629e+01 </wgt>
<wgt id='1266'> +6.0356881e+01 </wgt>
<wgt id='1267'> +6.0357573e+01 </wgt>
<wgt id='1268'> +6.0621495e+01 </wgt>
<wgt id='1269'> +6.0471444e+01 </wgt>
<wgt id='1270'> +6.0288924e+01 </wgt>
<wgt id='1271'> +6.0525200e+01 </wgt>
<wgt id='1272'> +6.0528030e+01 </wgt>
<wgt id='1273'> +6.0465200e+01 </wgt>
<wgt id='1274'> +6.0464445e+01 </wgt>
<wgt id='1275'> +6.0569861e+01 </wgt>
<wgt id='1276'> +6.0444465e+01 </wgt>
<wgt id='1277'> +6.0607120e+01 </wgt>
<wgt id='1278'> +6.0514289e+01 </wgt>
<wgt id='1279'> +6.0282576e+01 </wgt>
<wgt id='1280'> +6.0278933e+01 </wgt>
<wgt id='1281'> +6.0686287e+01 </wgt>
<wgt id='1282'> +6.0704780e+01 </wgt>
<wgt id='1283'> +6.0465675e+01 </wgt>
<wgt id='1284'> +6.0741233e+01 </wgt>
<wgt id='1285'> +6.0602262e+01 </wgt>
<wgt id='1286'> +5.9813331e+01 </wgt>
<wgt id='1287'> +6.0497520e+01 </wgt>
<wgt id='1288'> +6.0632631e+01 </wgt>
<wgt id='1289'> +5.9770493e+01 </wgt>
<wgt id='1290'> +6.0482200e+01 </wgt>
<wgt id='1291'> +6.1287862e+01 </wgt>
<wgt id='1292'> +6.1354698e+01 </wgt>
<wgt id='1293'> +6.0980160e+01 </wgt>
<wgt id='1294'> +5.9722251e+01 </wgt>
<wgt id='1295'> +5.9986423e+01 </wgt>
<wgt id='1296'> +6.0186771e+01 </wgt>
<wgt id='1297'> +6.0411727e+01 </wgt>
<wgt id='1298'> +6.0375071e+01 </wgt>
<wgt id='1299'> +6.0651417e+01 </wgt>
<wgt id='1300'> +5.9817368e+01 </wgt>
<wgt id='1301'> +6.0181775e+01 </wgt>
<wgt id='1302'> +6.0265866e+01 </wgt>
<wgt id='1303'> +6.0825433e+01 </wgt>
<wgt id='1304'> +6.0801147e+01 </wgt>
<wgt id='1305'> +6.0832198e+01 </wgt>
<wgt id='1306'> +6.0544017e+01 </wgt>
<wgt id='1307'> +6.0309196e+01 </wgt>
<wgt id='1308'> +6.0380990e+01 </wgt>
<wgt id='1309'> +6.0843762e+01 </wgt>
<wgt id='1310'> +6.0303499e+01 </wgt>
<wgt id='1311'> +6.0269633e+01 </wgt>
<wgt id='1312'> +6.0267025e+01 </wgt>
<wgt id='1313'> +6.0251460e+01 </wgt>
<wgt id='1314'> +6.0454853e+01 </wgt>
<wgt id='1315'> +6.0567554e+01 </wgt>
<wgt id='1316'> +6.0465510e+01 </wgt>
<wgt id='1317'> +6.0714930e+01 </wgt>
<wgt id='1318'> +6.0644338e+01 </wgt>
<wgt id='1319'> +6.0406554e+01 </wgt>
<wgt id='1320'> +6.0451908e+01 </wgt>
<wgt id='1321'> +6.0409090e+01 </wgt>
<wgt id='1322'> +6.0143812e+01 </wgt>
<wgt id='1323'> +6.0347219e+01 </wgt>
<wgt id='1324'> +6.0438221e+01 </wgt>
<wgt id='1325'> +6.0300073e+01 </wgt>
<wgt id='1326'> +6.0220016e+01 </wgt>
<wgt id='1327'> +6.0491794e+01 </wgt>
<wgt id='1328'> +6.0325793e+01 </wgt>
<wgt id='1329'> +6.0348850e+01 </wgt>
<wgt id='1330'> +6.0477233e+01 </wgt>
<wgt id='1331'> +6.0448479e+01 </wgt>
<wgt id='1332'> +6.0374916e+01 </wgt>
<wgt id='1333'> +6.0417519e+01 </wgt>
<wgt id='1334'> +6.0469453e+01 </wgt>
<wgt id='1335'> +6.0394008e+01 </wgt>
<wgt id='1336'> +6.0421412e+01 </wgt>
<wgt id='1337'> +6.0404495e+01 </wgt>
<wgt id='1338'> +6.0467644e+01 </wgt>
<wgt id='1339'> +6.0435628e+01 </wgt>
<wgt id='1340'> +6.0480737e+01 </wgt>
<wgt id='1341'> +6.0493457e+01 </wgt>
<wgt id='1342'> +6.0542271e+01 </wgt>
<wgt id='1343'> +6.0398794e+01 </wgt>
<wgt id='1344'> +6.0427994e+01 </wgt>
<wgt id='1345'> +6.0470774e+01 </wgt>
<wgt id='1346'> +6.0335512e+01 </wgt>
<wgt id='1347'> +6.0384222e+01 </wgt>
<wgt id='1348'> +6.0424964e+01 </wgt>
<wgt id='1349'> +6.0500021e+01 </wgt>
<wgt id='1350'> +6.0375261e+01 </wgt>
<wgt id='1351'> +6.0577636e+01 </wgt>
<wgt id='1352'> +6.0359045e+01 </wgt>
<wgt id='1353'> +5.8759920e+01 </wgt>
<wgt id='1354'> +6.2203843e+01 </wgt>
<wgt id='1355'> +5.0643301e+01 </wgt>
<wgt id='1356'> +5.2489836e+01 </wgt>
<wgt id='1357'> +5.5075960e+01 </wgt>
<wgt id='1358'> +5.6347606e+01 </wgt>
<wgt id='1359'> +5.9177495e+01 </wgt>
<wgt id='1360'> +6.1735168e+01 </wgt>
<wgt id='1361'> +6.4237971e+01 </wgt>
<wgt id='1362'> +6.7262387e+01 </wgt>
<wgt id='1363'> +6.4685386e+01 </wgt>
<wgt id='1364'> +6.4725203e+01 </wgt>
<wgt id='1365'> +6.4685241e+01 </wgt>
<wgt id='1366'> +6.4694040e+01 </wgt>
<wgt id='1367'> +6.4929841e+01 </wgt>
<wgt id='1368'> +6.4708439e+01 </wgt>
<wgt id='1369'> +6.4692694e+01 </wgt>
<wgt id='1370'> +6.4556252e+01 </wgt>
<wgt id='1371'> +6.4435963e+01 </wgt>
<wgt id='1372'> +6.4234537e+01 </wgt>
<wgt id='1373'> +6.4352406e+01 </wgt>
<wgt id='1374'> +6.4954936e+01 </wgt>
<wgt id='1375'> +6.5006634e+01 </wgt>
<wgt id='1376'> +6.4588727e+01 </wgt>
<wgt id='1377'> +6.4677896e+01 </wgt>
<wgt id='1378'> +6.4798761e+01 </wgt>
<wgt id='1379'> +6.4820559e+01 </wgt>
<wgt id='1380'> +6.4689742e+01 </wgt>
<wgt id='1381'> +6.4871836e+01 </wgt>
<wgt id='1382'> +6.4544752e+01 </wgt>
<wgt id='1383'> +6.4518790e+01 </wgt>
<wgt id='1384'> +6.4621823e+01 </wgt>
<wgt id='1385'> +6.4534722e+01 </wgt>
<wgt id='1386'> +6.4374409e+01 </wgt>
<wgt id='1387'> +6.4440642e+01 </wgt>
<wgt id='1388'> +6.4663503e+01 </wgt>
<wgt id='1389'> +6.4861102e+01 </wgt>
<wgt id='1390'> +6.4680327e+01 </wgt>
<wgt id='1391'> +6.4290752e+01 </wgt>
<wgt id='1392'> +6.4948657e+01 </wgt>
<wgt id='1393'> +6.4729033e+01 </wgt>
<wgt id='1394'> +6.4566435e+01 </wgt>
<wgt id='1395'> +6.4663153e+01 </wgt>
<wgt id='1396'> +6.4598255e+01 </wgt>
<wgt id='1397'> +6.4859152e+01 </wgt>
<wgt id='1398'> +6.3440685e+01 </wgt>
<wgt id='1399'> +6.4510303e+01 </wgt>
<wgt id='1400'> +6.5210716e+01 </wgt>
<wgt id='1401'> +6.4608788e+01 </wgt>
<wgt id='1402'> +6.4036113e+01 </wgt>
<wgt id='1403'> +6.5388326e+01 </wgt>
<wgt id='1404'> +6.5246418e+01 </wgt>
<wgt id='1405'> +6.4713803e+01 </wgt>
<wgt id='1406'> +6.4662932e+01 </wgt>
<wgt id='1407'> +6.4413134e+01 </wgt>
<wgt id='1408'> +6.4338618e+01 </wgt>
<wgt id='1409'> +6.5440508e+01 </wgt>
<wgt id='1410'> +6.4881036e+01 </wgt>
<wgt id='1411'> +6.4503937e+01 </wgt>
<wgt id='1412'> +6.4818271e+01 </wgt>
<wgt id='1413'> +6.4058044e+01 </wgt>
<wgt id='1414'> +6.4641946e+01 </wgt>
<wgt id='1415'> +6.4321792e+01 </wgt>
<wgt id='1416'> +6.4947891e+01 </wgt>
<wgt id='1417'> +6.4976263e+01 </wgt>
<wgt id='1418'> +6.4015763e+01 </wgt>
<wgt id='1419'> +6.4591790e+01 </wgt>
<wgt id='1420'> +6.4971626e+01 </wgt>
<wgt id='1421'> +6.4350523e+01 </wgt>
<wgt id='1422'> +6.4713414e+01 </wgt>
<wgt id='1423'> +6.4997149e+01 </wgt>
<wgt id='1424'> +6.4908738e+01 </wgt>
<wgt id='1425'> +6.4910956e+01 </wgt>
<wgt id='1426'> +6.4444786e+01 </wgt>
<wgt id='1427'> +6.4718187e+01 </wgt>
<wgt id='1428'> +6.4470284e+01 </wgt>
<wgt id='1429'> +6.4699583e+01 </wgt>
<wgt id='1430'> +6.4299525e+01 </wgt>
<wgt id='1431'> +6.4743016e+01 </wgt>
<wgt id='1432'> +6.4605321e+01 </wgt>
<wgt id='1433'> +6.4596833e+01 </wgt>
<wgt id='1434'> +6.4520824e+01 </wgt>
<wgt id='1435'> +6.4859757e+01 </wgt>
<wgt id='1436'> +6.4723832e+01 </wgt>
<wgt id='1437'> +6.4736805e+01 </wgt>
<wgt id='1438'> +6.4842868e+01 </wgt>
<wgt id='1439'> +6.4708746e+01 </wgt>
<wgt id='1440'> +6.4614335e+01 </wgt>
<wgt id='1441'> +6.4781078e+01 </wgt>
<wgt id='1442'> +6.4589595e+01 </wgt>
<wgt id='1443'> +6.4643048e+01 </wgt>
<wgt id='1444'> +6.4649226e+01 </wgt>
<wgt id='1445'> +6.4642833e+01 </wgt>
<wgt id='1446'> +6.4673102e+01 </wgt>
<wgt id='1447'> +6.4662366e+01 </wgt>
<wgt id='1448'> +6.4665385e+01 </wgt>
<wgt id='1449'> +6.4801461e+01 </wgt>
<wgt id='1450'> +6.4627439e+01 </wgt>
<wgt id='1451'> +6.4605701e+01 </wgt>
<wgt id='1452'> +6.4656533e+01 </wgt>
<wgt id='1453'> +6.4600172e+01 </wgt>
<wgt id='1454'> +6.4559294e+01 </wgt>
<wgt id='1455'> +6.4687149e+01 </wgt>
<wgt id='1456'> +6.4720437e+01 </wgt>
<wgt id='1457'> +6.4626962e+01 </wgt>
<wgt id='1458'> +6.4724925e+01 </wgt>
<wgt id='1459'> +6.4635139e+01 </wgt>
<wgt id='1460'> +6.4668053e+01 </wgt>
<wgt id='1461'> +6.4695188e+01 </wgt>
<wgt id='1462'> +6.4721607e+01 </wgt>
<wgt id='1463'> +6.4702780e+01 </wgt>
<wgt id='1464'> +6.2991665e+01 </wgt>
<wgt id='1465'> +6.7109708e+01 </wgt>
<wgt id='1466'> +6.7611758e+01 </wgt>
<wgt id='1467'> +6.7590402e+01 </wgt>
<wgt id='1468'> +6.8102899e+01 </wgt>
<wgt id='1469'> +6.7224239e+01 </wgt>
<wgt id='1470'> +6.8979238e+01 </wgt>
<wgt id='1471'> +6.8719813e+01 </wgt>
<wgt id='1472'> +7.0175654e+01 </wgt>
<wgt id='1473'> +6.8863045e+01 </wgt>
<wgt id='1474'> +6.7748937e+01 </wgt>
<wgt id='1475'> +6.7732214e+01 </wgt>
<wgt id='1476'> +6.7643106e+01 </wgt>
<wgt id='1477'> +6.9132470e+01 </wgt>
<wgt id='1478'> +6.6095160e+01 </wgt>
<wgt id='1479'> +7.0417508e+01 </wgt>
<wgt id='1480'> +6.4029415e+01 </wgt>
<wgt id='1481'> +6.6301123e+01 </wgt>
<wgt id='1482'> +7.1120196e+01 </wgt>
<wgt id='1483'> +6.7294277e+01 </wgt>
<wgt id='1484'> +6.7931621e+01 </wgt>
<wgt id='1485'> +6.5834841e+01 </wgt>
<wgt id='1486'> +6.9113018e+01 </wgt>
<wgt id='1487'> +6.6859035e+01 </wgt>
<wgt id='1488'> +6.8085366e+01 </wgt>
<wgt id='1489'> +6.7002911e+01 </wgt>
<wgt id='1490'> +6.8321729e+01 </wgt>
<wgt id='1491'> +6.7730940e+01 </wgt>
<wgt id='1492'> +6.7516897e+01 </wgt>
<wgt id='1493'> +6.6977544e+01 </wgt>
<wgt id='1494'> +6.8668006e+01 </wgt>
<wgt id='1495'> +6.9731535e+01 </wgt>
<wgt id='1496'> +6.6275924e+01 </wgt>
<wgt id='1497'> +6.8339167e+01 </wgt>
<wgt id='1498'> +6.6524398e+01 </wgt>
<wgt id='1499'> +6.6425160e+01 </wgt>
<wgt id='1500'> +6.8803766e+01 </wgt>
<wgt id='1501'> +6.6626848e+01 </wgt>
<wgt id='1502'> +6.8438923e+01 </wgt>
<wgt id='1503'> +6.6785821e+01 </wgt>
<wgt id='1504'> +6.8608940e+01 </wgt>
<wgt id='1505'> +6.8987726e+01 </wgt>
<wgt id='1506'> +6.6930065e+01 </wgt>
<wgt id='1507'> +6.7798724e+01 </wgt>
<wgt id='1508'> +6.7788708e+01 </wgt>
<wgt id='1509'> +6.8167750e+01 </wgt>
<wgt id='1510'> +6.8485794e+01 </wgt>
<wgt id='1511'> +6.5780947e+01 </wgt>
<wgt id='1512'> +6.8871416e+01 </wgt>
<wgt id='1513'> +6.4931129e+01 </wgt>
<wgt id='1514'> +6.8592161e+01 </wgt>
<wgt id='1515'> +6.7416560e+01 </wgt>
<wgt id='1516'> +6.7567460e+01 </wgt>
<wgt id='1517'> +6.7752759e+01 </wgt>
<wgt id='1518'> +6.7201352e+01 </wgt>
<wgt id='1519'> +6.6150350e+01 </wgt>
<wgt id='1520'> +6.9021493e+01 </wgt>
<wgt id='1521'> +6.7447983e+01 </wgt>
<wgt id='1522'> +6.7468784e+01 </wgt>
<wgt id='1523'> +6.5130040e+01 </wgt>
<wgt id='1524'> +7.0260332e+01 </wgt>
<wgt id='1525'> +6.8948742e+01 </wgt>
<wgt id='1526'> +6.8661916e+01 </wgt>
<wgt id='1527'> +6.9046799e+01 </wgt>
<wgt id='1528'> +6.9297795e+01 </wgt>
<wgt id='1529'> +6.9770619e+01 </wgt>
<wgt id='1530'> +6.8961670e+01 </wgt>
<wgt id='1531'> +6.8768607e+01 </wgt>
<wgt id='1532'> +6.7804903e+01 </wgt>
<wgt id='1533'> +6.9680893e+01 </wgt>
<wgt id='1534'> +6.9685019e+01 </wgt>
<wgt id='1535'> +6.9992092e+01 </wgt>
<wgt id='1536'> +6.8938718e+01 </wgt>
<wgt id='1537'> +6.8881164e+01 </wgt>
<wgt id='1538'> +7.0352328e+01 </wgt>
<wgt id='1539'> +6.8230443e+01 </wgt>
<wgt id='1540'> +7.0411731e+01 </wgt>
<wgt id='1541'> +6.8017255e+01 </wgt>
<wgt id='1542'> +6.7786596e+01 </wgt>
<wgt id='1543'> +7.0346571e+01 </wgt>
<wgt id='1544'> +6.7262842e+01 </wgt>
<wgt id='1545'> +7.0677464e+01 </wgt>
<wgt id='1546'> +6.8597893e+01 </wgt>
<wgt id='1547'> +6.9652061e+01 </wgt>
<wgt id='1548'> +7.0228053e+01 </wgt>
<wgt id='1549'> +6.7650876e+01 </wgt>
<wgt id='1550'> +6.8692919e+01 </wgt>
<wgt id='1551'> +6.9167473e+01 </wgt>
<wgt id='1552'> +6.9765145e+01 </wgt>
<wgt id='1553'> +6.7800777e+01 </wgt>
<wgt id='1554'> +6.9927557e+01 </wgt>
<wgt id='1555'> +6.8603155e+01 </wgt>
<wgt id='1556'> +6.8738569e+01 </wgt>
<wgt id='1557'> +6.9226702e+01 </wgt>
<wgt id='1558'> +6.9400241e+01 </wgt>
<wgt id='1559'> +6.7977202e+01 </wgt>
<wgt id='1560'> +6.7182067e+01 </wgt>
<wgt id='1561'> +7.0480629e+01 </wgt>
<wgt id='1562'> +6.7250235e+01 </wgt>
<wgt id='1563'> +7.1416155e+01 </wgt>
<wgt id='1564'> +6.7857371e+01 </wgt>
<wgt id='1565'> +6.9951847e+01 </wgt>
<wgt id='1566'> +6.8879172e+01 </wgt>
<wgt id='1567'> +6.8665177e+01 </wgt>
<wgt id='1568'> +6.6489066e+01 </wgt>
<wgt id='1569'> +6.9755546e+01 </wgt>
<wgt id='1570'> +7.3084502e+01 </wgt>
<wgt id='1571'> +6.7659254e+01 </wgt>
<wgt id='1572'> +6.8602447e+01 </wgt>
<wgt id='1573'> +7.2167649e+01 </wgt>
<wgt id='1574'> +7.2019790e+01 </wgt>
<wgt id='1575'> +6.9164400e+01 </wgt>
<wgt id='1576'> +6.9387660e+01 </wgt>
<wgt id='1577'> +6.8835996e+01 </wgt>
<wgt id='1578'> +6.5947112e+01 </wgt>
<wgt id='1579'> +6.9211924e+01 </wgt>
<wgt id='1580'> +6.8858429e+01 </wgt>
<wgt id='1581'> +6.8710641e+01 </wgt>
<wgt id='1582'> +6.6531535e+01 </wgt>
<wgt id='1583'> +7.1614412e+01 </wgt>
<wgt id='1584'> +9.3843291e+01 </wgt>
<wgt id='1585'> +6.5736346e+01 </wgt>
<wgt id='1586'> +6.5823580e+01 </wgt>
<wgt id='1587'> +6.5641992e+01 </wgt>
<wgt id='1588'> +6.5781359e+01 </wgt>
<wgt id='1589'> +6.5706941e+01 </wgt>
<wgt id='1590'> +6.5981474e+01 </wgt>
<wgt id='1591'> +6.5508701e+01 </wgt>
<wgt id='1592'> +6.5555227e+01 </wgt>
<wgt id='1593'> +6.5938959e+01 </wgt>
<wgt id='1594'> +6.5992282e+01 </wgt>
<wgt id='1595'> +6.5485611e+01 </wgt>
<wgt id='1596'> +6.5855088e+01 </wgt>
<wgt id='1597'> +6.5475634e+01 </wgt>
<wgt id='1598'> +6.5677197e+01 </wgt>
<wgt id='1599'> +6.5841941e+01 </wgt>
<wgt id='1600'> +6.5643723e+01 </wgt>
<wgt id='1601'> +6.5789551e+01 </wgt>
<wgt id='1602'> +6.5302939e+01 </wgt>
<wgt id='1603'> +6.6248239e+01 </wgt>
<wgt id='1604'> +6.5718586e+01 </wgt>
<wgt id='1605'> +6.5751495e+01 </wgt>
<wgt id='1606'> +6.5525065e+01 </wgt>
<wgt id='1607'> +6.6015508e+01 </wgt>
<wgt id='1608'> +6.5130746e+01 </wgt>
<wgt id='1609'> +6.6146592e+01 </wgt>
<wgt id='1610'> +6.6580580e+01 </wgt>
<wgt id='1611'> +6.4741501e+01 </wgt>
<wgt id='1612'> +6.5817697e+01 </wgt>
<wgt id='1613'> +6.5745703e+01 </wgt>
<wgt id='1614'> +6.5178444e+01 </wgt>
<wgt id='1615'> +6.6414897e+01 </wgt>
<wgt id='1616'> +6.4531683e+01 </wgt>
<wgt id='1617'> +6.7116391e+01 </wgt>
<wgt id='1618'> +6.6255841e+01 </wgt>
<wgt id='1619'> +6.5231739e+01 </wgt>
<wgt id='1620'> +6.5971385e+01 </wgt>
<wgt id='1621'> +6.5259934e+01 </wgt>
<wgt id='1622'> +6.5816349e+01 </wgt>
<wgt id='1623'> +6.5709266e+01 </wgt>
<wgt id='1624'> +6.5414428e+01 </wgt>
<wgt id='1625'> +6.6101692e+01 </wgt>
<wgt id='1626'> +6.4983788e+01 </wgt>
<wgt id='1627'> +6.6611312e+01 </wgt>
<wgt id='1628'> +6.6568296e+01 </wgt>
<wgt id='1629'> +6.5514661e+01 </wgt>
<wgt id='1630'> +6.5543957e+01 </wgt>
<wgt id='1631'> +6.6228071e+01 </wgt>
<wgt id='1632'> +6.4700946e+01 </wgt>
<wgt id='1633'> +6.7488915e+01 </wgt>
<wgt id='1634'> +6.5050750e+01 </wgt>
<wgt id='1635'> +6.6115347e+01 </wgt>
<wgt id='1636'> +6.3771557e+01 </wgt>
<wgt id='1637'> +6.3807300e+01 </wgt>
<wgt id='1638'> +6.3725847e+01 </wgt>
<wgt id='1639'> +6.4011840e+01 </wgt>
<wgt id='1640'> +6.3533746e+01 </wgt>
<wgt id='1641'> +6.3916534e+01 </wgt>
<wgt id='1642'> +6.3713849e+01 </wgt>
<wgt id='1643'> +6.3666848e+01 </wgt>
<wgt id='1644'> +6.3876108e+01 </wgt>
<wgt id='1645'> +6.3918567e+01 </wgt>
<wgt id='1646'> +6.3631089e+01 </wgt>
<wgt id='1647'> +6.3219463e+01 </wgt>
<wgt id='1648'> +6.4010881e+01 </wgt>
<wgt id='1649'> +6.3745539e+01 </wgt>
<wgt id='1650'> +6.3804079e+01 </wgt>
<wgt id='1651'> +6.3642742e+01 </wgt>
<wgt id='1652'> +6.3912426e+01 </wgt>
<wgt id='1653'> +6.3134897e+01 </wgt>
<wgt id='1654'> +6.4124002e+01 </wgt>
<wgt id='1655'> +6.3713320e+01 </wgt>
<wgt id='1656'> +6.3851917e+01 </wgt>
<wgt id='1657'> +6.3849744e+01 </wgt>
<wgt id='1658'> +6.3715875e+01 </wgt>
<wgt id='1659'> +6.3864640e+01 </wgt>
<wgt id='1660'> +6.3645602e+01 </wgt>
<wgt id='1661'> +6.3874031e+01 </wgt>
<wgt id='1662'> +6.3518725e+01 </wgt>
<wgt id='1663'> +6.3760465e+01 </wgt>
<wgt id='1664'> +6.3832974e+01 </wgt>
<wgt id='1665'> +6.4340924e+01 </wgt>
<wgt id='1666'> +6.2287130e+01 </wgt>
<wgt id='1667'> +6.3236716e+01 </wgt>
<wgt id='1668'> +6.4921203e+01 </wgt>
<wgt id='1669'> +6.3989454e+01 </wgt>
<wgt id='1670'> +6.3398462e+01 </wgt>
<wgt id='1671'> +6.2982264e+01 </wgt>
<wgt id='1672'> +6.4172127e+01 </wgt>
<wgt id='1673'> +6.3749959e+01 </wgt>
<wgt id='1674'> +6.3883402e+01 </wgt>
<wgt id='1675'> +6.3363763e+01 </wgt>
<wgt id='1676'> +6.4079571e+01 </wgt>
<wgt id='1677'> +6.4586661e+01 </wgt>
<wgt id='1678'> +6.2578181e+01 </wgt>
<wgt id='1679'> +6.3852502e+01 </wgt>
<wgt id='1680'> +6.3318518e+01 </wgt>
<wgt id='1681'> +6.4133790e+01 </wgt>
<wgt id='1682'> +6.3513689e+01 </wgt>
<wgt id='1683'> +6.3673860e+01 </wgt>
<wgt id='1684'> +6.3818746e+01 </wgt>
<wgt id='1685'> +6.4603811e+01 </wgt>
<wgt id='1686'> +6.3210328e+01 </wgt>
<wgt id='1687'> +1.1687634e+02 </wgt>
<wgt id='1688'> +6.1295455e+01 </wgt>
<wgt id='1689'> +6.1281393e+01 </wgt>
<wgt id='1690'> +6.1317001e+01 </wgt>
<wgt id='1691'> +6.1296102e+01 </wgt>
<wgt id='1692'> +6.1293177e+01 </wgt>
<wgt id='1693'> +6.1135628e+01 </wgt>
<wgt id='1694'> +6.1339840e+01 </wgt>
<wgt id='1695'> +6.1351905e+01 </wgt>
<wgt id='1696'> +6.1426118e+01 </wgt>
<wgt id='1697'> +6.1565560e+01 </wgt>
<wgt id='1698'> +6.1250002e+01 </wgt>
<wgt id='1699'> +6.1308579e+01 </wgt>
<wgt id='1700'> +6.1125310e+01 </wgt>
<wgt id='1701'> +6.1190086e+01 </wgt>
<wgt id='1702'> +6.1397022e+01 </wgt>
<wgt id='1703'> +6.1220057e+01 </wgt>
<wgt id='1704'> +6.1417939e+01 </wgt>
<wgt id='1705'> +6.1431902e+01 </wgt>
<wgt id='1706'> +6.1556359e+01 </wgt>
<wgt id='1707'> +6.1025838e+01 </wgt>
<wgt id='1708'> +6.1732708e+01 </wgt>
<wgt id='1709'> +6.1114233e+01 </wgt>
<wgt id='1710'> +6.2091896e+01 </wgt>
<wgt id='1711'> +6.0930548e+01 </wgt>
<wgt id='1712'> +6.0671874e+01 </wgt>
<wgt id='1713'> +6.0725501e+01 </wgt>
<wgt id='1714'> +6.1238155e+01 </wgt>
<wgt id='1715'> +6.1448117e+01 </wgt>
<wgt id='1716'> +6.1298818e+01 </wgt>
<wgt id='1717'> +6.3640566e+01 </wgt>
<wgt id='1718'> +6.6066645e+01 </wgt>
<wgt id='1719'> +6.5207119e+01 </wgt>
<wgt id='1720'> +6.5799361e+01 </wgt>
<wgt id='1721'> +6.6410099e+01 </wgt>
<wgt id='1722'> +6.5897402e+01 </wgt>
<wgt id='1723'> +6.6274509e+01 </wgt>
<wgt id='1724'> +6.5412615e+01 </wgt>
<wgt id='1725'> +6.6579842e+01 </wgt>
<wgt id='1726'> +6.6602383e+01 </wgt>
<wgt id='1727'> +6.5707774e+01 </wgt>
<wgt id='1728'> +6.5051458e+01 </wgt>
<wgt id='1729'> +6.5506812e+01 </wgt>
<wgt id='1730'> +6.6966785e+01 </wgt>
<wgt id='1731'> +6.6545737e+01 </wgt>
<wgt id='1732'> +6.7351400e+01 </wgt>
<wgt id='1733'> +6.6142329e+01 </wgt>
<wgt id='1734'> +6.5971257e+01 </wgt>
<wgt id='1735'> +6.7022390e+01 </wgt>
<wgt id='1736'> +6.5787702e+01 </wgt>
<wgt id='1737'> +6.5712080e+01 </wgt>
<wgt id='1738'> +6.4838901e+01 </wgt>
<wgt id='1739'> +6.4754405e+01 </wgt>
<wgt id='1740'> +6.7230704e+01 </wgt>
<wgt id='1741'> +6.5457285e+01 </wgt>
<wgt id='1742'> +6.5491616e+01 </wgt>
<wgt id='1743'> +6.6331854e+01 </wgt>
<wgt id='1744'> +6.6322135e+01 </wgt>
<wgt id='1745'> +6.5983971e+01 </wgt>
<wgt id='1746'> +6.5983768e+01 </wgt>
<wgt id='1747'> +6.5476888e+01 </wgt>
<wgt id='1748'> +6.6290741e+01 </wgt>
<wgt id='1749'> +6.6155966e+01 </wgt>
<wgt id='1750'> +6.6074180e+01 </wgt>
<wgt id='1751'> +6.5837129e+01 </wgt>
<wgt id='1752'> +6.6139749e+01 </wgt>
<wgt id='1753'> +6.6348961e+01 </wgt>
<wgt id='1754'> +6.6116449e+01 </wgt>
<wgt id='1755'> +6.6091902e+01 </wgt>
<wgt id='1756'> +6.6005223e+01 </wgt>
<wgt id='1757'> +6.6081093e+01 </wgt>
<wgt id='1758'> +6.6148989e+01 </wgt>
<wgt id='1759'> +6.6067461e+01 </wgt>
<wgt id='1760'> +6.6008888e+01 </wgt>
<wgt id='1761'> +6.6040418e+01 </wgt>
<wgt id='1762'> +6.6144436e+01 </wgt>
<wgt id='1763'> +6.6133710e+01 </wgt>
<wgt id='1764'> +6.6169530e+01 </wgt>
<wgt id='1765'> +6.5999587e+01 </wgt>
<wgt id='1766'> +6.5992699e+01 </wgt>
<wgt id='1767'> +6.6185225e+01 </wgt>
<wgt id='1768'> +6.5964422e+01 </wgt>
<wgt id='1769'> +6.6066500e+01 </wgt>
<wgt id='1770'> +6.6053352e+01 </wgt>
<wgt id='1771'> +6.5972505e+01 </wgt>
<wgt id='1772'> +6.6072293e+01 </wgt>
<wgt id='1773'> +6.6045937e+01 </wgt>
<wgt id='1774'> +6.6025131e+01 </wgt>
<wgt id='1775'> +6.6091251e+01 </wgt>
<wgt id='1776'> +6.6100484e+01 </wgt>
<wgt id='1777'> +6.6078054e+01 </wgt>
<wgt id='1778'> +6.5983703e+01 </wgt>
<wgt id='1779'> +6.6142987e+01 </wgt>
<wgt id='1780'> +6.6056048e+01 </wgt>
<wgt id='1781'> +6.6063506e+01 </wgt>
<wgt id='1782'> +6.6023293e+01 </wgt>
<wgt id='1783'> +6.6068257e+01 </wgt>
<wgt id='1784'> +6.6087966e+01 </wgt>
<wgt id='1785'> +6.6076455e+01 </wgt>
<wgt id='1786'> +6.6110347e+01 </wgt>
<wgt id='1787'> +6.6069786e+01 </wgt>
<wgt id='1788'> +6.6045550e+01 </wgt>
<wgt id='1789'> +6.5977946e+01 </wgt>
<wgt id='1790'> +6.6062243e+01 </wgt>
<wgt id='1791'> +6.5994829e+01 </wgt>
<wgt id='1792'> +6.6061280e+01 </wgt>
<wgt id='1793'> +6.6040545e+01 </wgt>
<wgt id='1794'> +6.6036141e+01 </wgt>
<wgt id='1795'> +6.6037835e+01 </wgt>
<wgt id='1796'> +6.6089938e+01 </wgt>
<wgt id='1797'> +6.6110405e+01 </wgt>
<wgt id='1798'> +6.6026865e+01 </wgt>
<wgt id='1799'> +6.6096135e+01 </wgt>
<wgt id='1800'> +6.6011372e+01 </wgt>
<wgt id='1801'> +6.6113990e+01 </wgt>
<wgt id='1802'> +6.6119640e+01 </wgt>
<wgt id='1803'> +6.6105677e+01 </wgt>
<wgt id='1804'> +6.6146007e+01 </wgt>
<wgt id='1805'> +6.6083905e+01 </wgt>
<wgt id='1806'> +6.6056383e+01 </wgt>
<wgt id='1807'> +6.6066169e+01 </wgt>
<wgt id='1808'> +6.6060699e+01 </wgt>
<wgt id='1809'> +6.6039655e+01 </wgt>
<wgt id='1810'> +6.6054013e+01 </wgt>
<wgt id='1811'> +6.6033104e+01 </wgt>
<wgt id='1812'> +6.6065437e+01 </wgt>
<wgt id='1813'> +6.6066715e+01 </wgt>
<wgt id='1814'> +6.6043606e+01 </wgt>
<wgt id='1815'> +6.6089390e+01 </wgt>
<wgt id='1816'> +6.6088248e+01 </wgt>
<wgt id='1817'> +6.6080929e+01 </wgt>
<wgt id='1818'> +6.6063069e+01 </wgt>
<wgt id='1819'> +6.4353910e+01 </wgt>
<wgt id='1820'> +6.7972810e+01 </wgt>
<wgt id='1821'> +6.4598184e+01 </wgt>
<wgt id='1822'> +6.5069478e+01 </wgt>
<wgt id='1823'> +6.4191227e+01 </wgt>
<wgt id='1824'> +6.5216160e+01 </wgt>
<wgt id='1825'> +6.5135833e+01 </wgt>
<wgt id='1826'> +6.5052020e+01 </wgt>
<wgt id='1827'> +6.5188757e+01 </wgt>
<wgt id='1828'> +6.4766097e+01 </wgt>
<wgt id='1829'> +6.4604246e+01 </wgt>
<wgt id='1830'> +6.5066834e+01 </wgt>
<wgt id='1831'> +6.5220915e+01 </wgt>
<wgt id='1832'> +6.4479566e+01 </wgt>
<wgt id='1833'> +6.4392879e+01 </wgt>
<wgt id='1834'> +6.6259286e+01 </wgt>
<wgt id='1835'> +6.4294654e+01 </wgt>
<wgt id='1836'> +6.3189598e+01 </wgt>
<wgt id='1837'> +6.3426416e+01 </wgt>
<wgt id='1838'> +6.4925829e+01 </wgt>
<wgt id='1839'> +6.5417707e+01 </wgt>
<wgt id='1840'> +6.5134056e+01 </wgt>
<wgt id='1841'> +6.5173868e+01 </wgt>
<wgt id='1842'> +6.2603083e+01 </wgt>
<wgt id='1843'> +6.4596107e+01 </wgt>
<wgt id='1844'> +6.3886256e+01 </wgt>
<wgt id='1845'> +6.4311181e+01 </wgt>
<wgt id='1846'> +6.4356588e+01 </wgt>
<wgt id='1847'> +6.4402751e+01 </wgt>
<wgt id='1848'> +6.4522765e+01 </wgt>
<wgt id='1849'> +6.4512935e+01 </wgt>
<wgt id='1850'> +6.5011718e+01 </wgt>
<wgt id='1851'> +6.4620352e+01 </wgt>
<wgt id='1852'> +6.4257938e+01 </wgt>
<wgt id='1853'> +6.4593698e+01 </wgt>
<wgt id='1854'> +6.4603732e+01 </wgt>
<wgt id='1855'> +6.4903224e+01 </wgt>
<wgt id='1856'> +6.4803899e+01 </wgt>
<wgt id='1857'> +6.4713851e+01 </wgt>
<wgt id='1858'> +6.4580459e+01 </wgt>
<wgt id='1859'> +6.4644920e+01 </wgt>
<wgt id='1860'> +6.4441793e+01 </wgt>
<wgt id='1861'> +6.4576351e+01 </wgt>
<wgt id='1862'> +6.4591153e+01 </wgt>
<wgt id='1863'> +6.4486709e+01 </wgt>
<wgt id='1864'> +6.4417520e+01 </wgt>
<wgt id='1865'> +6.4603133e+01 </wgt>
<wgt id='1866'> +6.4526423e+01 </wgt>
<wgt id='1867'> +6.4485063e+01 </wgt>
<wgt id='1868'> +6.4682840e+01 </wgt>
<wgt id='1869'> +6.4635764e+01 </wgt>
<wgt id='1870'> +6.4536651e+01 </wgt>
<wgt id='1871'> +6.4570315e+01 </wgt>
<wgt id='1872'> +6.4657571e+01 </wgt>
<wgt id='1873'> +6.4678229e+01 </wgt>
<wgt id='1874'> +6.4611072e+01 </wgt>
<wgt id='1875'> +6.4553188e+01 </wgt>
<wgt id='1876'> +6.4512837e+01 </wgt>
<wgt id='1877'> +6.4622968e+01 </wgt>
<wgt id='1878'> +6.4576803e+01 </wgt>
<wgt id='1879'> +6.4505864e+01 </wgt>
<wgt id='1880'> +6.4559569e+01 </wgt>
<wgt id='1881'> +6.4572021e+01 </wgt>
<wgt id='1882'> +6.4574093e+01 </wgt>
<wgt id='1883'> +6.4621082e+01 </wgt>
<wgt id='1884'> +6.4608921e+01 </wgt>
<wgt id='1885'> +6.4669032e+01 </wgt>
<wgt id='1886'> +6.4562477e+01 </wgt>
<wgt id='1887'> +6.4559519e+01 </wgt>
<wgt id='1888'> +6.4639370e+01 </wgt>
<wgt id='1889'> +6.4603633e+01 </wgt>
<wgt id='1890'> +6.4669400e+01 </wgt>
<wgt id='1891'> +6.4607577e+01 </wgt>
<wgt id='1892'> +6.4641022e+01 </wgt>
<wgt id='1893'> +6.4630180e+01 </wgt>
<wgt id='1894'> +6.4575943e+01 </wgt>
<wgt id='1895'> +6.4612055e+01 </wgt>
<wgt id='1896'> +6.4531612e+01 </wgt>
<wgt id='1897'> +6.4617977e+01 </wgt>
<wgt id='1898'> +6.4619541e+01 </wgt>
<wgt id='1899'> +6.4623986e+01 </wgt>
<wgt id='1900'> +6.4564363e+01 </wgt>
<wgt id='1901'> +6.4662137e+01 </wgt>
<wgt id='1902'> +6.4617210e+01 </wgt>
<wgt id='1903'> +6.4604497e+01 </wgt>
<wgt id='1904'> +6.4578349e+01 </wgt>
<wgt id='1905'> +6.4582911e+01 </wgt>
<wgt id='1906'> +6.4576576e+01 </wgt>
<wgt id='1907'> +6.4609288e+01 </wgt>
<wgt id='1908'> +6.4496617e+01 </wgt>
<wgt id='1909'> +6.4567550e+01 </wgt>
<wgt id='1910'> +6.4569523e+01 </wgt>
<wgt id='1911'> +6.4610657e+01 </wgt>
<wgt id='1912'> +6.4588068e+01 </wgt>
<wgt id='1913'> +6.4589529e+01 </wgt>
<wgt id='1914'> +6.4574365e+01 </wgt>
<wgt id='1915'> +6.4579720e+01 </wgt>
<wgt id='1916'> +6.4598807e+01 </wgt>
<wgt id='1917'> +6.4587242e+01 </wgt>
<wgt id='1918'> +6.4616098e+01 </wgt>
<wgt id='1919'> +6.4591749e+01 </wgt>
<wgt id='1920'> +6.4585793e+01 </wgt>
<wgt id='1921'> +6.4587576e+01 </wgt>
<wgt id='1922'> +6.2677829e+01 </wgt>
<wgt id='1923'> +6.6543767e+01 </wgt>
<wgt id='1924'> +6.6128147e+01 </wgt>
<wgt id='1925'> +6.5450545e+01 </wgt>
<wgt id='1926'> +6.5809840e+01 </wgt>
<wgt id='1927'> +6.6063341e+01 </wgt>
<wgt id='1928'> +6.7265370e+01 </wgt>
<wgt id='1929'> +6.5363995e+01 </wgt>
<wgt id='1930'> +6.5336207e+01 </wgt>
<wgt id='1931'> +6.5942106e+01 </wgt>
<wgt id='1932'> +6.5397458e+01 </wgt>
<wgt id='1933'> +6.5849261e+01 </wgt>
<wgt id='1934'> +6.5655426e+01 </wgt>
<wgt id='1935'> +6.5616077e+01 </wgt>
<wgt id='1936'> +6.5456347e+01 </wgt>
<wgt id='1937'> +6.6156554e+01 </wgt>
<wgt id='1938'> +6.6379263e+01 </wgt>
<wgt id='1939'> +6.6668045e+01 </wgt>
<wgt id='1940'> +6.6544677e+01 </wgt>
<wgt id='1941'> +6.5590746e+01 </wgt>
<wgt id='1942'> +6.6302209e+01 </wgt>
<wgt id='1943'> +6.3464403e+01 </wgt>
<wgt id='1944'> +6.6315238e+01 </wgt>
<wgt id='1945'> +6.6194082e+01 </wgt>
<wgt id='1946'> +6.6613718e+01 </wgt>
<wgt id='1947'> +6.6128489e+01 </wgt>
<wgt id='1948'> +6.6137480e+01 </wgt>
<wgt id='1949'> +6.6116761e+01 </wgt>
<wgt id='1950'> +6.5929463e+01 </wgt>
<wgt id='1951'> +6.6017442e+01 </wgt>
<wgt id='1952'> +6.5545665e+01 </wgt>
<wgt id='1953'> +6.6231479e+01 </wgt>
<wgt id='1954'> +6.6089074e+01 </wgt>
<wgt id='1955'> +6.4353910e+01 </wgt>
<wgt id='1956'> +6.7972810e+01 </wgt>
<wgt id='1957'> +6.4605959e+01 </wgt>
<wgt id='1958'> +6.4516433e+01 </wgt>
<wgt id='1959'> +6.3697784e+01 </wgt>
<wgt id='1960'> +6.4677620e+01 </wgt>
<wgt id='1961'> +6.2885986e+01 </wgt>
<wgt id='1962'> +6.5496094e+01 </wgt>
<wgt id='1963'> +6.4697476e+01 </wgt>
<wgt id='1964'> +6.4982175e+01 </wgt>
<wgt id='1965'> +6.4611495e+01 </wgt>
<wgt id='1966'> +6.4889114e+01 </wgt>
<wgt id='1967'> +6.4723190e+01 </wgt>
<wgt id='1968'> +6.4494458e+01 </wgt>
<wgt id='1969'> +6.4248407e+01 </wgt>
<wgt id='1970'> +6.4639434e+01 </wgt>
<wgt id='1971'> +6.4472822e+01 </wgt>
<wgt id='1972'> +6.3748392e+01 </wgt>
<wgt id='1973'> +6.4926235e+01 </wgt>
<wgt id='1974'> +6.4973569e+01 </wgt>
<wgt id='1975'> +6.4705775e+01 </wgt>
<wgt id='1976'> +6.5030393e+01 </wgt>
<wgt id='1977'> +6.4689268e+01 </wgt>
<wgt id='1978'> +6.5026488e+01 </wgt>
<wgt id='1979'> +6.3896653e+01 </wgt>
<wgt id='1980'> +6.4640277e+01 </wgt>
<wgt id='1981'> +6.3773459e+01 </wgt>
<wgt id='1982'> +6.4115868e+01 </wgt>
<wgt id='1983'> +6.4595860e+01 </wgt>
<wgt id='1984'> +6.5281933e+01 </wgt>
<wgt id='1985'> +6.4476749e+01 </wgt>
<wgt id='1986'> +6.2023538e+01 </wgt>
<wgt id='1987'> +6.4638758e+01 </wgt>
<wgt id='1988'> +6.2677829e+01 </wgt>
<wgt id='1989'> +6.6543767e+01 </wgt>
<wgt id='1990'> +4.8210099e+01 </wgt>
<wgt id='1991'> +4.8148657e+01 </wgt>
<wgt id='1992'> +4.8271343e+01 </wgt>
<wgt id='1993'> +4.8293024e+01 </wgt>
<wgt id='1994'> +4.8127094e+01 </wgt>
<wgt id='1995'> +4.8202727e+01 </wgt>
<wgt id='1996'> +4.8217623e+01 </wgt>
<wgt id='1997'> +4.8342816e+01 </wgt>
<wgt id='1998'> +4.8080812e+01 </wgt>
<wgt id='1999'> +4.8150082e+01 </wgt>
<wgt id='2000'> +4.8274420e+01 </wgt>
<wgt id='2001'> +4.7946586e+01 </wgt>
<wgt id='2002'> +4.8481608e+01 </wgt>
<wgt id='2003'> +4.8204957e+01 </wgt>
<wgt id='2004'> +4.8216170e+01 </wgt>
<wgt id='2005'> +4.8698605e+01 </wgt>
<wgt id='2006'> +4.7741479e+01 </wgt>
<wgt id='2007'> +4.8385900e+01 </wgt>
<wgt id='2008'> +4.8012876e+01 </wgt>
<wgt id='2009'> +4.8955058e+01 </wgt>
<wgt id='2010'> +4.7505502e+01 </wgt>
<wgt id='2011'> +4.8218694e+01 </wgt>
<wgt id='2012'> +4.8185020e+01 </wgt>
<wgt id='2013'> +4.7473062e+01 </wgt>
<wgt id='2014'> +4.8955734e+01 </wgt>
<wgt id='2015'> +4.7409279e+01 </wgt>
<wgt id='2016'> +4.9048747e+01 </wgt>
<wgt id='2017'> +4.9274233e+01 </wgt>
<wgt id='2018'> +4.7299302e+01 </wgt>
<wgt id='2019'> +4.8210099e+01 </wgt>
<wgt id='2020'> +4.8555285e+01 </wgt>
<wgt id='2021'> +4.7699631e+01 </wgt>
<wgt id='2022'> +4.8566522e+01 </wgt>
<wgt id='2023'> +4.7870148e+01 </wgt>
<wgt id='2024'> +4.6991848e+01 </wgt>
<wgt id='2025'> +5.0622542e+01 </wgt>
<wgt id='2026'> +4.8329430e+01 </wgt>
<wgt id='2027'> +4.8161564e+01 </wgt>
<wgt id='2028'> +4.8689798e+01 </wgt>
<wgt id='2029'> +4.7771116e+01 </wgt>
<wgt id='2030'> +4.7807873e+01 </wgt>
<wgt id='2031'> +4.8255150e+01 </wgt>
<wgt id='2032'> +4.9892075e+01 </wgt>
<wgt id='2033'> +6.0030214e+01 </wgt>
<wgt id='2034'> +5.9877589e+01 </wgt>
<wgt id='2035'> +5.9997492e+01 </wgt>
<wgt id='2036'> +6.0007273e+01 </wgt>
<wgt id='2037'> +5.9867867e+01 </wgt>
<wgt id='2038'> +6.0005544e+01 </wgt>
<wgt id='2039'> +5.9869820e+01 </wgt>
<wgt id='2040'> +6.0222267e+01 </wgt>
<wgt id='2041'> +5.9659915e+01 </wgt>
<wgt id='2042'> +5.9706570e+01 </wgt>
<wgt id='2043'> +6.0175491e+01 </wgt>
<wgt id='2044'> +6.0129169e+01 </wgt>
<wgt id='2045'> +5.9752840e+01 </wgt>
<wgt id='2046'> +5.9887788e+01 </wgt>
<wgt id='2047'> +5.9988728e+01 </wgt>
<wgt id='2048'> +6.0227070e+01 </wgt>
<wgt id='2049'> +5.9647507e+01 </wgt>
<wgt id='2050'> +5.9644183e+01 </wgt>
<wgt id='2051'> +6.0232975e+01 </wgt>
<wgt id='2052'> +6.0483396e+01 </wgt>
<wgt id='2053'> +5.9404890e+01 </wgt>
<wgt id='2054'> +6.1320271e+01 </wgt>
<wgt id='2055'> +5.8593355e+01 </wgt>
<wgt id='2056'> +5.8668485e+01 </wgt>
<wgt id='2057'> +6.1220917e+01 </wgt>
<wgt id='2058'> +5.8495242e+01 </wgt>
<wgt id='2059'> +6.1309904e+01 </wgt>
<wgt id='2060'> +5.9296922e+01 </wgt>
<wgt id='2061'> +6.0660561e+01 </wgt>
<wgt id='2062'> +5.9923710e+01 </wgt>
<wgt id='2063'> +6.0118375e+01 </wgt>
<wgt id='2064'> +5.8952857e+01 </wgt>
<wgt id='2065'> +6.0153988e+01 </wgt>
<wgt id='2066'> +5.9693213e+01 </wgt>
<wgt id='2067'> +5.6199258e+01 </wgt>
<wgt id='2068'> +6.2257357e+01 </wgt>
<wgt id='2069'> +5.9888922e+01 </wgt>
<wgt id='2070'> +5.9844545e+01 </wgt>
<wgt id='2071'> +6.0648931e+01 </wgt>
<wgt id='2072'> +5.5797326e+01 </wgt>
<wgt id='2073'> +6.0462679e+01 </wgt>
<wgt id='2074'> +5.9151773e+01 </wgt>
<wgt id='2075'> +6.1940001e+01 </wgt>
<wgt id='2076'> +6.8654355e+01 </wgt>
<wgt id='2077'> +6.8647235e+01 </wgt>
<wgt id='2078'> +6.8640066e+01 </wgt>
<wgt id='2079'> +6.8633233e+01 </wgt>
<wgt id='2080'> +6.8626152e+01 </wgt>
<wgt id='2081'> +6.8619032e+01 </wgt>
<wgt id='2082'> +6.8611843e+01 </wgt>
<wgt id='2083'> +6.8605040e+01 </wgt>
<wgt id='2084'> +6.8597988e+01 </wgt>
<wgt id='2085'> +6.8590867e+01 </wgt>
<wgt id='2086'> +6.8584015e+01 </wgt>
<wgt id='2087'> +6.8576364e+01 </wgt>
<wgt id='2088'> +6.8569344e+01 </wgt>
<wgt id='2089'> +6.8562403e+01 </wgt>
<wgt id='2090'> +6.8555323e+01 </wgt>
<wgt id='2091'> +6.8548289e+01 </wgt>
<wgt id='2092'> +6.8541079e+01 </wgt>
<wgt id='2093'> +6.8534378e+01 </wgt>
<wgt id='2094'> +6.8527203e+01 </wgt>
<wgt id='2095'> +6.8520089e+01 </wgt>
<wgt id='2096'> +6.8513177e+01 </wgt>
<wgt id='2097'> +6.8506140e+01 </wgt>
<wgt id='2098'> +6.8499102e+01 </wgt>
<wgt id='2099'> +6.8491899e+01 </wgt>
<wgt id='2100'> +6.8485033e+01 </wgt>
<wgt id='2101'> +6.8477920e+01 </wgt>
<wgt id='2102'> +6.8470786e+01 </wgt>
<wgt id='2103'> +6.8464020e+01 </wgt>
<wgt id='2104'> +6.8456812e+01 </wgt>
<wgt id='2105'> +6.8449774e+01 </wgt>
<wgt id='2106'> +6.8443008e+01 </wgt>
<wgt id='2107'> +6.3782785e+01 </wgt>
<wgt id='2108'> +6.4249340e+01 </wgt>
<wgt id='2109'> +6.3377780e+01 </wgt>
<wgt id='2110'> +6.4397648e+01 </wgt>
<wgt id='2111'> +6.4315890e+01 </wgt>
<wgt id='2112'> +6.4234318e+01 </wgt>
<wgt id='2113'> +6.4367485e+01 </wgt>
<wgt id='2114'> +6.3945453e+01 </wgt>
<wgt id='2115'> +6.3787821e+01 </wgt>
<wgt id='2116'> +6.4248235e+01 </wgt>
<wgt id='2117'> +6.4400190e+01 </wgt>
<wgt id='2118'> +6.3666739e+01 </wgt>
<wgt id='2119'> +6.3579405e+01 </wgt>
<wgt id='2120'> +6.5425552e+01 </wgt>
<wgt id='2121'> +6.3477761e+01 </wgt>
<wgt id='2122'> +6.2385551e+01 </wgt>
<wgt id='2123'> +6.2626452e+01 </wgt>
<wgt id='2124'> +6.4106795e+01 </wgt>
<wgt id='2125'> +6.4592197e+01 </wgt>
<wgt id='2126'> +6.4312664e+01 </wgt>
<wgt id='2127'> +6.4353046e+01 </wgt>
<wgt id='2128'> +6.1807488e+01 </wgt>
<wgt id='2129'> +6.3784333e+01 </wgt>
<wgt id='2130'> +6.3075157e+01 </wgt>
<wgt id='2131'> +6.3497083e+01 </wgt>
<wgt id='2132'> +6.3543765e+01 </wgt>
<wgt id='2133'> +6.3588969e+01 </wgt>
<wgt id='2134'> +6.3708234e+01 </wgt>
<wgt id='2135'> +6.3699375e+01 </wgt>
<wgt id='2136'> +6.4193085e+01 </wgt>
<wgt id='2137'> +6.3805661e+01 </wgt>
<wgt id='2138'> +6.3446502e+01 </wgt>
<wgt id='2139'> +6.3778894e+01 </wgt>
<wgt id='2140'> +6.3789056e+01 </wgt>
<wgt id='2141'> +6.4084495e+01 </wgt>
<wgt id='2142'> +6.3987574e+01 </wgt>
<wgt id='2143'> +6.3896518e+01 </wgt>
<wgt id='2144'> +6.3766268e+01 </wgt>
<wgt id='2145'> +6.3828999e+01 </wgt>
<wgt id='2146'> +6.3627759e+01 </wgt>
<wgt id='2147'> +6.3761518e+01 </wgt>
<wgt id='2148'> +6.3773424e+01 </wgt>
<wgt id='2149'> +6.3670024e+01 </wgt>
<wgt id='2150'> +6.3604453e+01 </wgt>
<wgt id='2151'> +6.3788778e+01 </wgt>
<wgt id='2152'> +6.3709328e+01 </wgt>
<wgt id='2153'> +6.3670454e+01 </wgt>
<wgt id='2154'> +6.3865187e+01 </wgt>
<wgt id='2155'> +6.3818995e+01 </wgt>
<wgt id='2156'> +6.3720895e+01 </wgt>
<wgt id='2157'> +6.3755650e+01 </wgt>
<wgt id='2158'> +6.3841932e+01 </wgt>
<wgt id='2159'> +6.3861380e+01 </wgt>
<wgt id='2160'> +6.3797245e+01 </wgt>
<wgt id='2161'> +6.3739489e+01 </wgt>
<wgt id='2162'> +6.3699265e+01 </wgt>
<wgt id='2163'> +6.3807594e+01 </wgt>
<wgt id='2164'> +6.3761711e+01 </wgt>
<wgt id='2165'> +6.3691771e+01 </wgt>
<wgt id='2166'> +6.3745108e+01 </wgt>
<wgt id='2167'> +6.3757853e+01 </wgt>
<wgt id='2168'> +6.3759119e+01 </wgt>
<wgt id='2169'> +6.3805479e+01 </wgt>
<wgt id='2170'> +6.3794118e+01 </wgt>
<wgt id='2171'> +6.3851426e+01 </wgt>
<wgt id='2172'> +6.3747615e+01 </wgt>
<wgt id='2173'> +6.3745258e+01 </wgt>
<wgt id='2174'> +6.3822865e+01 </wgt>
<wgt id='2175'> +6.3788092e+01 </wgt>
<wgt id='2176'> +6.3853475e+01 </wgt>
<wgt id='2177'> +6.3791826e+01 </wgt>
<wgt id='2178'> +6.3825868e+01 </wgt>
<wgt id='2179'> +6.3815329e+01 </wgt>
<wgt id='2180'> +6.3760198e+01 </wgt>
<wgt id='2181'> +6.3797048e+01 </wgt>
<wgt id='2182'> +6.3717350e+01 </wgt>
<wgt id='2183'> +6.3802803e+01 </wgt>
<wgt id='2184'> +6.3804286e+01 </wgt>
<wgt id='2185'> +6.3809567e+01 </wgt>
<wgt id='2186'> +6.3749307e+01 </wgt>
<wgt id='2187'> +6.3845489e+01 </wgt>
<wgt id='2188'> +6.3801496e+01 </wgt>
<wgt id='2189'> +6.3789268e+01 </wgt>
<wgt id='2190'> +6.3762772e+01 </wgt>
<wgt id='2191'> +6.3767321e+01 </wgt>
<wgt id='2192'> +6.3761544e+01 </wgt>
<wgt id='2193'> +6.3793954e+01 </wgt>
<wgt id='2194'> +6.3682495e+01 </wgt>
<wgt id='2195'> +6.3752499e+01 </wgt>
<wgt id='2196'> +6.3754343e+01 </wgt>
<wgt id='2197'> +6.3795512e+01 </wgt>
<wgt id='2198'> +6.3772961e+01 </wgt>
<wgt id='2199'> +6.3774497e+01 </wgt>
<wgt id='2200'> +6.3759165e+01 </wgt>
<wgt id='2201'> +6.3764518e+01 </wgt>
<wgt id='2202'> +6.3783607e+01 </wgt>
<wgt id='2203'> +6.3771581e+01 </wgt>
<wgt id='2204'> +6.3800317e+01 </wgt>
<wgt id='2205'> +6.3776828e+01 </wgt>
<wgt id='2206'> +6.3770431e+01 </wgt>
<wgt id='2207'> +6.3772167e+01 </wgt>
<wgt id='2208'> +6.3781977e+01 </wgt>
<wgt id='2209'> +6.3777463e+01 </wgt>
<wgt id='2210'> +6.3783631e+01 </wgt>
<wgt id='2211'> +6.3783766e+01 </wgt>
<wgt id='2212'> +6.3785249e+01 </wgt>
<wgt id='2213'> +6.3783142e+01 </wgt>
<wgt id='2214'> +6.3779235e+01 </wgt>
<wgt id='2215'> +6.3778273e+01 </wgt>
<wgt id='2216'> +5.9986756e+01 </wgt>
<wgt id='2217'> +6.5809245e+01 </wgt>
<wgt id='2218'> +6.1730047e+01 </wgt>
<wgt id='2219'> +5.9181267e+01 </wgt>
<wgt id='2220'> +6.1697592e+01 </wgt>
<wgt id='2221'> +6.2967925e+01 </wgt>
<wgt id='2222'> +6.5365713e+01 </wgt>
<wgt id='2223'> +6.5610395e+01 </wgt>
<wgt id='2224'> +5.9640843e+01 </wgt>
<wgt id='2225'> +6.6601349e+01 </wgt>
<wgt id='2226'> +6.9393136e+01 </wgt>
<wgt id='2227'> +6.4668641e+01 </wgt>
<wgt id='2228'> +7.0462994e+01 </wgt>
<wgt id='2229'> +6.9504958e+01 </wgt>
<wgt id='2230'> +6.7035855e+01 </wgt>
<wgt id='2231'> +6.4166799e+01 </wgt>
<wgt id='2232'> +6.6713336e+01 </wgt>
<wgt id='2233'> +6.4042300e+01 </wgt>
<wgt id='2234'> +6.1774593e+01 </wgt>
<wgt id='2235'> +5.9295409e+01 </wgt>
<wgt id='2236'> +6.3608540e+01 </wgt>
<wgt id='2237'> +6.4234931e+01 </wgt>
<wgt id='2238'> +6.5867152e+01 </wgt>
<wgt id='2239'> +5.8262713e+01 </wgt>
<wgt id='2240'> +6.4690186e+01 </wgt>
<wgt id='2241'> +5.7316323e+01 </wgt>
<wgt id='2242'> +6.8692924e+01 </wgt>
<wgt id='2243'> +6.3627876e+01 </wgt>
<wgt id='2244'> +6.1659363e+01 </wgt>
<wgt id='2245'> +5.9255500e+01 </wgt>
<wgt id='2246'> +6.2409226e+01 </wgt>
<wgt id='2247'> +6.4507831e+01 </wgt>
<wgt id='2248'> +6.4612389e+01 </wgt>
<wgt id='2249'> +5.6635677e+01 </wgt>
<wgt id='2250'> +6.8860504e+01 </wgt>
<wgt id='2251'> +6.4943363e+01 </wgt>
<wgt id='2252'> +6.6917825e+01 </wgt>
<wgt id='2253'> +6.5370200e+01 </wgt>
<wgt id='2254'> +6.1510182e+01 </wgt>
<wgt id='2255'> +6.2955089e+01 </wgt>
<wgt id='2256'> +6.2828605e+01 </wgt>
<wgt id='2257'> +6.0888639e+01 </wgt>
<wgt id='2258'> +6.0804567e+01 </wgt>
<wgt id='2259'> +5.9712055e+01 </wgt>
<wgt id='2260'> +6.6177555e+01 </wgt>
<wgt id='2261'> +6.1239405e+01 </wgt>
<wgt id='2262'> +6.4129817e+01 </wgt>
<wgt id='2263'> +6.3053195e+01 </wgt>
<wgt id='2264'> +6.7374880e+01 </wgt>
<wgt id='2265'> +6.5258754e+01 </wgt>
<wgt id='2266'> +6.2237355e+01 </wgt>
<wgt id='2267'> +6.4583844e+01 </wgt>
<wgt id='2268'> +5.3890433e+01 </wgt>
<wgt id='2269'> +6.6219414e+01 </wgt>
<wgt id='2270'> +6.4129840e+01 </wgt>
<wgt id='2271'> +6.5100904e+01 </wgt>
<wgt id='2272'> +6.6768185e+01 </wgt>
<wgt id='2273'> +6.5078535e+01 </wgt>
<wgt id='2274'> +6.2078420e+01 </wgt>
<wgt id='2275'> +6.3923879e+01 </wgt>
<wgt id='2276'> +6.4952030e+01 </wgt>
<wgt id='2277'> +6.1720132e+01 </wgt>
<wgt id='2278'> +6.1576304e+01 </wgt>
<wgt id='2279'> +6.7515007e+01 </wgt>
<wgt id='2280'> +6.0087188e+01 </wgt>
<wgt id='2281'> +6.3464481e+01 </wgt>
<wgt id='2282'> +6.5037168e+01 </wgt>
<wgt id='2283'> +6.4363290e+01 </wgt>
<wgt id='2284'> +6.4985753e+01 </wgt>
<wgt id='2285'> +6.5509914e+01 </wgt>
<wgt id='2286'> +6.3280098e+01 </wgt>
<wgt id='2287'> +6.1957314e+01 </wgt>
<wgt id='2288'> +6.6056408e+01 </wgt>
<wgt id='2289'> +5.6260998e+01 </wgt>
<wgt id='2290'> +6.6091200e+01 </wgt>
<wgt id='2291'> +6.0328582e+01 </wgt>
<wgt id='2292'> +6.3957836e+01 </wgt>
<wgt id='2293'> +6.6025896e+01 </wgt>
<wgt id='2294'> +6.3964048e+01 </wgt>
<wgt id='2295'> +6.5991403e+01 </wgt>
<wgt id='2296'> +6.4032388e+01 </wgt>
<wgt id='2297'> +6.5549429e+01 </wgt>
<wgt id='2298'> +5.6437005e+01 </wgt>
<wgt id='2299'> +6.5956501e+01 </wgt>
<wgt id='2300'> +6.4321750e+01 </wgt>
<wgt id='2301'> +6.5415063e+01 </wgt>
<wgt id='2302'> +6.5813088e+01 </wgt>
<wgt id='2303'> +6.5416857e+01 </wgt>
<wgt id='2304'> +6.3618634e+01 </wgt>
<wgt id='2305'> +6.3742519e+01 </wgt>
<wgt id='2306'> +6.3171036e+01 </wgt>
<wgt id='2307'> +6.2948955e+01 </wgt>
<wgt id='2308'> +6.5221882e+01 </wgt>
<wgt id='2309'> +6.0881214e+01 </wgt>
<wgt id='2310'> +7.0721680e+01 </wgt>
<wgt id='2311'> +6.1762036e+01 </wgt>
<wgt id='2312'> +6.3312988e+01 </wgt>
<wgt id='2313'> +6.5107603e+01 </wgt>
<wgt id='2314'> +6.6083647e+01 </wgt>
<wgt id='2315'> +7.0705218e+01 </wgt>
<wgt id='2316'> +6.2445946e+01 </wgt>
<wgt id='2317'> +6.4861065e+01 </wgt>
<wgt id='2318'> +6.2172103e+01 </wgt>
<wgt id='2319'> +7.1918530e+01 </wgt>
<wgt id='2320'> +8.8084105e+01 </wgt>
<wgt id='2321'> +7.4184636e+01 </wgt>
<wgt id='2322'> +8.5420667e+01 </wgt>
</rwgt>
</event>
<event>
12      1 +6.1139206e+01 2.34569800e+02 7.56146200e-03 1.03301000e-01
        2 -1    0    0  503    0 +0.0000000000e+00 +0.0000000000e+00 +1.1564826189e+03 1.1564826189e+03 0.0000000000e+00 0.0000e+00 1.0000e+00
       -2 -1    0    0    0  501 -0.0000000000e+00 -0.0000000000e+00 -6.8419787949e+01 6.8419787949e+01 0.0000000000e+00 0.0000e+00 -1.0000e+00
        6  2    1    2  503    0 -1.4478018340e+02 -6.4830908561e+01 +8.8209448645e+02 9.1275659820e+02 1.7282816993e+02 0.0000e+00 0.0000e+00
       24  2    3    3    0    0 -1.7172395388e+02 -6.8657600085e+01 +7.1019427975e+02 7.3866534684e+02 8.3949968733e+01 0.0000e+00 0.0000e+00
       -6  2    1    2    0  501 +1.4478018340e+02 +6.4830908561e+01 +2.0596834451e+02 3.1214580866e+02 1.7276486539e+02 0.0000e+00 0.0000e+00
      -24  2    5    5    0    0 +9.8488799412e+01 +1.0040187449e+02 +1.9291657676e+02 2.5217909381e+02 8.1221362678e+01 0.0000e+00 0.0000e+00
        2  1    4    4  502    0 -1.3253100068e+02 -3.6907316977e+01 +3.6993628529e+02 3.9468908189e+02 0.0000000000e+00 0.0000e+00 -1.0000e+00
       -1  1    4    4    0  502 -3.9192953200e+01 -3.1750283108e+01 +3.4025799445e+02 3.4397626495e+02 0.0000000000e+00 0.0000e+00 1.0000e+00
        5  1    3    3  503    0 +2.6943770481e+01 +3.8266915235e+00 +1.7190020670e+02 1.7409125136e+02 4.1800000000e+00 0.0000e+00 -1.0000e+00
       15  1    6    6    0    0 +3.1714581374e+01 +7.3180906389e+01 +1.4534835143e+02 1.6579325377e+02 0.0000000000e+00 0.0000e+00 -1.0000e+00
      -16  1    6    6    0    0 +6.6774218038e+01 +2.7220968099e+01 +4.7568225336e+01 8.6385840046e+01 0.0000000000e+00 0.0000e+00 1.0000e+00
       -5  1    5    5    0  501 +4.6291383985e+01 -3.5570965926e+01 +1.3051767746e+01 5.9966714847e+01 4.1800000000e+00 0.0000e+00 1.0000e+00
<scales pt_clust_7="13000.00000" pt_clust_8="13000.00000" pt_clust_9="13000.00000" pt_clust_10="13000.00000" pt_clust_11="13000.00000" pt_clust_12="13000.00000"></scales>
<mgrwt>
<rscale>  2 0.23456979E+03</rscale>
<asrwt>0</asrwt>
<pdfrwt beam="1">  1        2 0.17792039E+00 0.23456979E+03</pdfrwt>
<pdfrwt beam="2">  1       -2 0.10526122E-01 0.23456979E+03</pdfrwt>
<totfact> 0.16124432E+01</totfact>
</mgrwt>
<clustering>
<clus scale="   81.221"> 10 11 -1 -1</clus>
<clus scale="   83.950">  7  8 -1 -1</clus>
<clus scale="  172.765"> 10 12 -1 -1</clus>
<clus scale="  172.828">  7  9 -1 -1</clus>
<clus scale="  476.382">  7 10 -1 -1</clus>
<clus scale="  234.570">  1  7  2 -1</clus>
</clustering>
<rwgt>
<wgt id='dummy'> +6.1139206e+01 </wgt>
<wgt id='ctGRe_0p_cQj18_0p_cQj38_0p_cQj11_0p_cjj31_0p_ctu8_0p_ctd8_0p_ctj8_0p_cQu8_0p_cQd8_0p_ctu1_0p_ctd1_0p_ctj1_0p_cQu1_0p_cQd1_0p'> +6.1139206e+01 </wgt>
<wgt id='ctGRe_1p_cQj18_0p_cQj38_0p_cQj11_0p_cjj31_0p_ctu8_0p_ctd8_0p_ctj8_0p_cQu8_0p_cQd8_0p_ctu1_0p_ctd1_0p_ctj1_0p_cQu1_0p_cQd1_0p'> +4.8185112e+01 </wgt>
<wgt id='ctGRe_0p_cQj18_1p_cQj38_0p_cQj11_0p_cjj31_0p_ctu8_0p_ctd8_0p_ctj8_0p_cQu8_0p_cQd8_0p_ctu1_0p_ctd1_0p_ctj1_0p_cQu1_0p_cQd1_0p'> +6.1139206e+01 </wgt>
<wgt id='ctGRe_0p_cQj18_0p_cQj38_1p_cQj11_0p_cjj31_0p_ctu8_0p_ctd8_0p_ctj8_0p_cQu8_0p_cQd8_0p_ctu1_0p_ctd1_0p_ctj1_0p_cQu1_0p_cQd1_0p'> +6.1139206e+01 </wgt>
<wgt id='ctGRe_0p_cQj18_0p_cQj38_0p_cQj11_1p_cjj31_0p_ctu8_0p_ctd8_0p_ctj8_0p_cQu8_0p_cQd8_0p_ctu1_0p_ctd1_0p_ctj1_0p_cQu1_0p_cQd1_0p'> +6.1139206e+01 </wgt>
<wgt id='ctGRe_0p_cQj18_0p_cQj38_0p_cQj11_0p_cjj31_1p_ctu8_0p_ctd8_0p_ctj8_0p_cQu8_0p_cQd8_0p_ctu1_0p_ctd1_0p_ctj1_0p_cQu1_0p_cQd1_0p'> +6.1139206e+01 </wgt>
<wgt id='ctGRe_0p_cQj18_0p_cQj38_0p_cQj11_0p_cjj31_0p_ctu8_1p_ctd8_0p_ctj8_0p_cQu8_0p_cQd8_0p_ctu1_0p_ctd1_0p_ctj1_0p_cQu1_0p_cQd1_0p'> +6.1139206e+01 </wgt>
<wgt id='ctGRe_0p_cQj18_0p_cQj38_0p_cQj11_0p_cjj31_0p_ctu8_0p_ctd8_1p_ctj8_0p_cQu8_0p_cQd8_0p_ctu1_0p_ctd1_0p_ctj1_0p_cQu1_0p_cQd1_0p'> +6.1139206e+01 </wgt>
<wgt id='ctGRe_0p_cQj18_0p_cQj38_0p_cQj11_0p_cjj31_0p_ctu8_0p_ctd8_0p_ctj8_1p_cQu8_0p_cQd8_0p_ctu1_0p_ctd1_0p_ctj1_0p_cQu1_0p_cQd1_0p'> +6.1139206e+01 </wgt>
<wgt id='ctGRe_0p_cQj18_0p_cQj38_0p_cQj11_0p_cjj31_0p_ctu8_0p_ctd8_0p_ctj8_0p_cQu8_1p_cQd8_0p_ctu1_0p_ctd1_0p_ctj1_0p_cQu1_0p_cQd1_0p'> +6.3456837e+01 </wgt>
<wgt id='ctGRe_0p_cQj18_0p_cQj38_0p_cQj11_0p_cjj31_0p_ctu8_0p_ctd8_0p_ctj8_0p_cQu8_0p_cQd8_1p_ctu1_0p_ctd1_0p_ctj1_0p_cQu1_0p_cQd1_0p'> +6.1139206e+01 </wgt>
<wgt id='ctGRe_0p_cQj18_0p_cQj38_0p_cQj11_0p_cjj31_0p_ctu8_0p_ctd8_0p_ctj8_0p_cQu8_0p_cQd8_0p_ctu1_1p_ctd1_0p_ctj1_0p_cQu1_0p_cQd1_0p'> +8.1502791e+01 </wgt>
<wgt id='ctGRe_0p_cQj18_0p_cQj38_0p_cQj11_0p_cjj31_0p_ctu8_0p_ctd8_0p_ctj8_0p_cQu8_0p_cQd8_0p_ctu1_0p_ctd1_1p_ctj1_0p_cQu1_0p_cQd1_0p'> +6.1139206e+01 </wgt>
<wgt id='ctGRe_0p_cQj18_0p_cQj38_0p_cQj11_0p_cjj31_0p_ctu8_0p_ctd8_0p_ctj8_0p_cQu8_0p_cQd8_0p_ctu1_0p_ctd1_0p_ctj1_1p_cQu1_0p_cQd1_0p'> +6.1139206e+01 </wgt>
<wgt id='ctGRe_0p_cQj18_0p_cQj38_0p_cQj11_0p_cjj31_0p_ctu8_0p_ctd8_0p_ctj8_0p_cQu8_0p_cQd8_0p_ctu1_0p_ctd1_0p_ctj1_0p_cQu1_1p_cQd1_0p'> +6.2384308e+01 </wgt>
<wgt id='ctGRe_0p_cQj18_0p_cQj38_0p_cQj11_0p_cjj31_0p_ctu8_0p_ctd8_0p_ctj8_0p_cQu8_0p_cQd8_0p_ctu1_0p_ctd1_0p_ctj1_0p_cQu1_0p_cQd1_1p'> +6.1139206e+01 </wgt>
<wgt id='ctGRe_2p_cQj18_0p_cQj38_0p_cQj11_0p_cjj31_0p_ctu8_0p_ctd8_0p_ctj8_0p_cQu8_0p_cQd8_0p_ctu1_0p_ctd1_0p_ctj1_0p_cQu1_0p_cQd1_0p'> +3.7688462e+01 </wgt>
<wgt id='ctGRe_1p_cQj18_1p_cQj38_0p_cQj11_0p_cjj31_0p_ctu8_0p_ctd8_0p_ctj8_0p_cQu8_0p_cQd8_0p_ctu1_0p_ctd1_0p_ctj1_0p_cQu1_0p_cQd1_0p'> +4.8185112e+01 </wgt>
<wgt id='ctGRe_1p_cQj18_0p_cQj38_1p_cQj11_0p_cjj31_0p_ctu8_0p_ctd8_0p_ctj8_0p_cQu8_0p_cQd8_0p_ctu1_0p_ctd1_0p_ctj1_0p_cQu1_0p_cQd1_0p'> +4.8185112e+01 </wgt>
<wgt id='ctGRe_1p_cQj18_0p_cQj38_0p_cQj11_1p_cjj31_0p_ctu8_0p_ctd8_0p_ctj8_0p_cQu8_0p_cQd8_0p_ctu1_0p_ctd1_0p_ctj1_0p_cQu1_0p_cQd1_0p'> +4.8185112e+01 </wgt>
<wgt id='ctGRe_1p_cQj18_0p_cQj38_0p_cQj11_0p_cjj31_1p_ctu8_0p_ctd8_0p_ctj8_0p_cQu8_0p_cQd8_0p_ctu1_0p_ctd1_0p_ctj1_0p_cQu1_0p_cQd1_0p'> +4.8185112e+01 </wgt>
<wgt id='ctGRe_1p_cQj18_0p_cQj38_0p_cQj11_0p_cjj31_0p_ctu8_1p_ctd8_0p_ctj8_0p_cQu8_0p_cQd8_0p_ctu1_0p_ctd1_0p_ctj1_0p_cQu1_0p_cQd1_0p'> +4.8185112e+01 </wgt>
<wgt id='ctGRe_1p_cQj18_0p_cQj38_0p_cQj11_0p_cjj31_0p_ctu8_0p_ctd8_1p_ctj8_0p_cQu8_0p_cQd8_0p_ctu1_0p_ctd1_0p_ctj1_0p_cQu1_0p_cQd1_0p'> +4.8185112e+01 </wgt>
<wgt id='ctGRe_1p_cQj18_0p_cQj38_0p_cQj11_0p_cjj31_0p_ctu8_0p_ctd8_0p_ctj8_1p_cQu8_0p_cQd8_0p_ctu1_0p_ctd1_0p_ctj1_0p_cQu1_0p_cQd1_0p'> +4.8185112e+01 </wgt>
<wgt id='ctGRe_1p_cQj18_0p_cQj38_0p_cQj11_0p_cjj31_0p_ctu8_0p_ctd8_0p_ctj8_0p_cQu8_1p_cQd8_0p_ctu1_0p_ctd1_0p_ctj1_0p_cQu1_0p_cQd1_0p'> +4.9641245e+01 </wgt>
<wgt id='ctGRe_1p_cQj18_0p_cQj38_0p_cQj11_0p_cjj31_0p_ctu8_0p_ctd8_0p_ctj8_0p_cQu8_0p_cQd8_1p_ctu1_0p_ctd1_0p_ctj1_0p_cQu1_0p_cQd1_0p'> +4.8185112e+01 </wgt>
<wgt id='ctGRe_1p_cQj18_0p_cQj38_0p_cQj11_0p_cjj31_0p_ctu8_0p_ctd8_0p_ctj8_0p_cQu8_0p_cQd8_0p_ctu1_1p_ctd1_0p_ctj1_0p_cQu1_0p_cQd1_0p'> +6.8548697e+01 </wgt>
<wgt id='ctGRe_1p_cQj18_0p_cQj38_0p_cQj11_0p_cjj31_0p_ctu8_0p_ctd8_0p_ctj8_0p_cQu8_0p_cQd8_0p_ctu1_0p_ctd1_1p_ctj1_0p_cQu1_0p_cQd1_0p'> +4.8185112e+01 </wgt>
<wgt id='ctGRe_1p_cQj18_0p_cQj38_0p_cQj11_0p_cjj31_0p_ctu8_0p_ctd8_0p_ctj8_0p_cQu8_0p_cQd8_0p_ctu1_0p_ctd1_0p_ctj1_1p_cQu1_0p_cQd1_0p'> +4.8185112e+01 </wgt>
<wgt id='ctGRe_1p_cQj18_0p_cQj38_0p_cQj11_0p_cjj31_0p_ctu8_0p_ctd8_0p_ctj8_0p_cQu8_0p_cQd8_0p_ctu1_0p_ctd1_0p_ctj1_0p_cQu1_1p_cQd1_0p'> +4.9430214e+01 </wgt>
<wgt id='ctGRe_1p_cQj18_0p_cQj38_0p_cQj11_0p_cjj31_0p_ctu8_0p_ctd8_0p_ctj8_0p_cQu8_0p_cQd8_0p_ctu1_0p_ctd1_0p_ctj1_0p_cQu1_0p_cQd1_1p'> +4.8185112e+01 </wgt>
<wgt id='ctGRe_0p_cQj18_2p_cQj38_0p_cQj11_0p_cjj31_0p_ctu8_0p_ctd8_0p_ctj8_0p_cQu8_0p_cQd8_0p_ctu1_0p_ctd1_0p_ctj1_0p_cQu1_0p_cQd1_0p'> +6.1139206e+01 </wgt>
<wgt id='ctGRe_0p_cQj18_1p_cQj38_1p_cQj11_0p_cjj31_0p_ctu8_0p_ctd8_0p_ctj8_0p_cQu8_0p_cQd8_0p_ctu1_0p_ctd1_0p_ctj1_0p_cQu1_0p_cQd1_0p'> +6.1139206e+01 </wgt>
<wgt id='ctGRe_0p_cQj18_1p_cQj38_0p_cQj11_1p_cjj31_0p_ctu8_0p_ctd8_0p_ctj8_0p_cQu8_0p_cQd8_0p_ctu1_0p_ctd1_0p_ctj1_0p_cQu1_0p_cQd1_0p'> +6.1139206e+01 </wgt>
<wgt id='ctGRe_0p_cQj18_1p_cQj38_0p_cQj11_0p_cjj31_1p_ctu8_0p_ctd8_0p_ctj8_0p_cQu8_0p_cQd8_0p_ctu1_0p_ctd1_0p_ctj1_0p_cQu1_0p_cQd1_0p'> +6.1139206e+01 </wgt>
<wgt id='ctGRe_0p_cQj18_1p_cQj38_0p_cQj11_0p_cjj31_0p_ctu8_1p_ctd8_0p_ctj8_0p_cQu8_0p_cQd8_0p_ctu1_0p_ctd1_0p_ctj1_0p_cQu1_0p_cQd1_0p'> +6.1139206e+01 </wgt>
<wgt id='ctGRe_0p_cQj18_1p_cQj38_0p_cQj11_0p_cjj31_0p_ctu8_0p_ctd8_1p_ctj8_0p_cQu8_0p_cQd8_0p_ctu1_0p_ctd1_0p_ctj1_0p_cQu1_0p_cQd1_0p'> +6.1139206e+01 </wgt>
<wgt id='ctGRe_0p_cQj18_1p_cQj38_0p_cQj11_0p_cjj31_0p_ctu8_0p_ctd8_0p_ctj8_1p_cQu8_0p_cQd8_0p_ctu1_0p_ctd1_0p_ctj1_0p_cQu1_0p_cQd1_0p'> +6.1139206e+01 </wgt>
<wgt id='ctGRe_0p_cQj18_1p_cQj38_0p_cQj11_0p_cjj31_0p_ctu8_0p_ctd8_0p_ctj8_0p_cQu8_1p_cQd8_0p_ctu1_0p_ctd1_0p_ctj1_0p_cQu1_0p_cQd1_0p'> +6.3456837e+01 </wgt>
<wgt id='ctGRe_0p_cQj18_1p_cQj38_0p_cQj11_0p_cjj31_0p_ctu8_0p_ctd8_0p_ctj8_0p_cQu8_0p_cQd8_1p_ctu1_0p_ctd1_0p_ctj1_0p_cQu1_0p_cQd1_0p'> +6.1139206e+01 </wgt>
<wgt id='ctGRe_0p_cQj18_1p_cQj38_0p_cQj11_0p_cjj31_0p_ctu8_0p_ctd8_0p_ctj8_0p_cQu8_0p_cQd8_0p_ctu1_1p_ctd1_0p_ctj1_0p_cQu1_0p_cQd1_0p'> +8.1502791e+01 </wgt>
<wgt id='ctGRe_0p_cQj18_1p_cQj38_0p_cQj11_0p_cjj31_0p_ctu8_0p_ctd8_0p_ctj8_0p_cQu8_0p_cQd8_0p_ctu1_0p_ctd1_1p_ctj1_0p_cQu1_0p_cQd1_0p'> +6.1139206e+01 </wgt>
<wgt id='ctGRe_0p_cQj18_1p_cQj38_0p_cQj11_0p_cjj31_0p_ctu8_0p_ctd8_0p_ctj8_0p_cQu8_0p_cQd8_0p_ctu1_0p_ctd1_0p_ctj1_1p_cQu1_0p_cQd1_0p'> +6.1139206e+01 </wgt>
<wgt id='ctGRe_0p_cQj18_1p_cQj38_0p_cQj11_0p_cjj31_0p_ctu8_0p_ctd8_0p_ctj8_0p_cQu8_0p_cQd8_0p_ctu1_0p_ctd1_0p_ctj1_0p_cQu1_1p_cQd1_0p'> +6.2384308e+01 </wgt>
<wgt id='ctGRe_0p_cQj18_1p_cQj38_0p_cQj11_0p_cjj31_0p_ctu8_0p_ctd8_0p_ctj8_0p_cQu8_0p_cQd8_0p_ctu1_0p_ctd1_0p_ctj1_0p_cQu1_0p_cQd1_1p'> +6.1139206e+01 </wgt>
<wgt id='ctGRe_0p_cQj18_0p_cQj38_2p_cQj11_0p_cjj31_0p_ctu8_0p_ctd8_0p_ctj8_0p_cQu8_0p_cQd8_0p_ctu1_0p_ctd1_0p_ctj1_0p_cQu1_0p_cQd1_0p'> +6.1139206e+01 </wgt>
<wgt id='ctGRe_0p_cQj18_0p_cQj38_1p_cQj11_1p_cjj31_0p_ctu8_0p_ctd8_0p_ctj8_0p_cQu8_0p_cQd8_0p_ctu1_0p_ctd1_0p_ctj1_0p_cQu1_0p_cQd1_0p'> +6.1139206e+01 </wgt>
<wgt id='ctGRe_0p_cQj18_0p_cQj38_1p_cQj11_0p_cjj31_1p_ctu8_0p_ctd8_0p_ctj8_0p_cQu8_0p_cQd8_0p_ctu1_0p_ctd1_0p_ctj1_0p_cQu1_0p_cQd1_0p'> +6.1139206e+01 </wgt>
<wgt id='ctGRe_0p_cQj18_0p_cQj38_1p_cQj11_0p_cjj31_0p_ctu8_1p_ctd8_0p_ctj8_0p_cQu8_0p_cQd8_0p_ctu1_0p_ctd1_0p_ctj1_0p_cQu1_0p_cQd1_0p'> +6.1139206e+01 </wgt>
<wgt id='ctGRe_0p_cQj18_0p_cQj38_1p_cQj11_0p_cjj31_0p_ctu8_0p_ctd8_1p_ctj8_0p_cQu8_0p_cQd8_0p_ctu1_0p_ctd1_0p_ctj1_0p_cQu1_0p_cQd1_0p'> +6.1139206e+01 </wgt>
<wgt id='ctGRe_0p_cQj18_0p_cQj38_1p_cQj11_0p_cjj31_0p_ctu8_0p_ctd8_0p_ctj8_1p_cQu8_0p_cQd8_0p_ctu1_0p_ctd1_0p_ctj1_0p_cQu1_0p_cQd1_0p'> +6.1139206e+01 </wgt>
<wgt id='ctGRe_0p_cQj18_0p_cQj38_1p_cQj11_0p_cjj31_0p_ctu8_0p_ctd8_0p_ctj8_0p_cQu8_1p_cQd8_0p_ctu1_0p_ctd1_0p_ctj1_0p_cQu1_0p_cQd1_0p'> +6.3456837e+01 </wgt>
<wgt id='ctGRe_0p_cQj18_0p_cQj38_1p_cQj11_0p_cjj31_0p_ctu8_0p_ctd8_0p_ctj8_0p_cQu8_0p_cQd8_1p_ctu1_0p_ctd1_0p_ctj1_0p_cQu1_0p_cQd1_0p'> +6.1139206e+01 </wgt>
<wgt id='ctGRe_0p_cQj18_0p_cQj38_1p_cQj11_0p_cjj31_0p_ctu8_0p_ctd8_0p_ctj8_0p_cQu8_0p_cQd8_0p_ctu1_1p_ctd1_0p_ctj1_0p_cQu1_0p_cQd1_0p'> +8.1502791e+01 </wgt>
<wgt id='ctGRe_0p_cQj18_0p_cQj38_1p_cQj11_0p_cjj31_0p_ctu8_0p_ctd8_0p_ctj8_0p_cQu8_0p_cQd8_0p_ctu1_0p_ctd1_1p_ctj1_0p_cQu1_0p_cQd1_0p'> +6.1139206e+01 </wgt>
<wgt id='ctGRe_0p_cQj18_0p_cQj38_1p_cQj11_0p_cjj31_0p_ctu8_0p_ctd8_0p_ctj8_0p_cQu8_0p_cQd8_0p_ctu1_0p_ctd1_0p_ctj1_1p_cQu1_0p_cQd1_0p'> +6.1139206e+01 </wgt>
<wgt id='ctGRe_0p_cQj18_0p_cQj38_1p_cQj11_0p_cjj31_0p_ctu8_0p_ctd8_0p_ctj8_0p_cQu8_0p_cQd8_0p_ctu1_0p_ctd1_0p_ctj1_0p_cQu1_1p_cQd1_0p'> +6.2384308e+01 </wgt>
<wgt id='ctGRe_0p_cQj18_0p_cQj38_1p_cQj11_0p_cjj31_0p_ctu8_0p_ctd8_0p_ctj8_0p_cQu8_0p_cQd8_0p_ctu1_0p_ctd1_0p_ctj1_0p_cQu1_0p_cQd1_1p'> +6.1139206e+01 </wgt>
<wgt id='ctGRe_0p_cQj18_0p_cQj38_0p_cQj11_2p_cjj31_0p_ctu8_0p_ctd8_0p_ctj8_0p_cQu8_0p_cQd8_0p_ctu1_0p_ctd1_0p_ctj1_0p_cQu1_0p_cQd1_0p'> +6.1139206e+01 </wgt>
<wgt id='ctGRe_0p_cQj18_0p_cQj38_0p_cQj11_1p_cjj31_1p_ctu8_0p_ctd8_0p_ctj8_0p_cQu8_0p_cQd8_0p_ctu1_0p_ctd1_0p_ctj1_0p_cQu1_0p_cQd1_0p'> +6.1139206e+01 </wgt>
<wgt id='ctGRe_0p_cQj18_0p_cQj38_0p_cQj11_1p_cjj31_0p_ctu8_1p_ctd8_0p_ctj8_0p_cQu8_0p_cQd8_0p_ctu1_0p_ctd1_0p_ctj1_0p_cQu1_0p_cQd1_0p'> +6.1139206e+01 </wgt>
<wgt id='ctGRe_0p_cQj18_0p_cQj38_0p_cQj11_1p_cjj31_0p_ctu8_0p_ctd8_1p_ctj8_0p_cQu8_0p_cQd8_0p_ctu1_0p_ctd1_0p_ctj1_0p_cQu1_0p_cQd1_0p'> +6.1139206e+01 </wgt>
<wgt id='ctGRe_0p_cQj18_0p_cQj38_0p_cQj11_1p_cjj31_0p_ctu8_0p_ctd8_0p_ctj8_1p_cQu8_0p_cQd8_0p_ctu1_0p_ctd1_0p_ctj1_0p_cQu1_0p_cQd1_0p'> +6.1139206e+01 </wgt>
<wgt id='ctGRe_0p_cQj18_0p_cQj38_0p_cQj11_1p_cjj31_0p_ctu8_0p_ctd8_0p_ctj8_0p_cQu8_1p_cQd8_0p_ctu1_0p_ctd1_0p_ctj1_0p_cQu1_0p_cQd1_0p'> +6.3456837e+01 </wgt>
<wgt id='ctGRe_0p_cQj18_0p_cQj38_0p_cQj11_1p_cjj31_0p_ctu8_0p_ctd8_0p_ctj8_0p_cQu8_0p_cQd8_1p_ctu1_0p_ctd1_0p_ctj1_0p_cQu1_0p_cQd1_0p'> +6.1139206e+01 </wgt>
<wgt id='ctGRe_0p_cQj18_0p_cQj38_0p_cQj11_1p_cjj31_0p_ctu8_0p_ctd8_0p_ctj8_0p_cQu8_0p_cQd8_0p_ctu1_1p_ctd1_0p_ctj1_0p_cQu1_0p_cQd1_0p'> +8.1502791e+01 </wgt>
<wgt id='ctGRe_0p_cQj18_0p_cQj38_0p_cQj11_1p_cjj31_0p_ctu8_0p_ctd8_0p_ctj8_0p_cQu8_0p_cQd8_0p_ctu1_0p_ctd1_1p_ctj1_0p_cQu1_0p_cQd1_0p'> +6.1139206e+01 </wgt>
<wgt id='ctGRe_0p_cQj18_0p_cQj38_0p_cQj11_1p_cjj31_0p_ctu8_0p_ctd8_0p_ctj8_0p_cQu8_0p_cQd8_0p_ctu1_0p_ctd1_0p_ctj1_1p_cQu1_0p_cQd1_0p'> +6.1139206e+01 </wgt>
<wgt id='ctGRe_0p_cQj18_0p_cQj38_0p_cQj11_1p_cjj31_0p_ctu8_0p_ctd8_0p_ctj8_0p_cQu8_0p_cQd8_0p_ctu1_0p_ctd1_0p_ctj1_0p_cQu1_1p_cQd1_0p'> +6.2384308e+01 </wgt>
<wgt id='ctGRe_0p_cQj18_0p_cQj38_0p_cQj11_1p_cjj31_0p_ctu8_0p_ctd8_0p_ctj8_0p_cQu8_0p_cQd8_0p_ctu1_0p_ctd1_0p_ctj1_0p_cQu1_0p_cQd1_1p'> +6.1139206e+01 </wgt>
<wgt id='ctGRe_0p_cQj18_0p_cQj38_0p_cQj11_0p_cjj31_2p_ctu8_0p_ctd8_0p_ctj8_0p_cQu8_0p_cQd8_0p_ctu1_0p_ctd1_0p_ctj1_0p_cQu1_0p_cQd1_0p'> +6.1139206e+01 </wgt>
<wgt id='ctGRe_0p_cQj18_0p_cQj38_0p_cQj11_0p_cjj31_1p_ctu8_1p_ctd8_0p_ctj8_0p_cQu8_0p_cQd8_0p_ctu1_0p_ctd1_0p_ctj1_0p_cQu1_0p_cQd1_0p'> +6.1139206e+01 </wgt>
<wgt id='ctGRe_0p_cQj18_0p_cQj38_0p_cQj11_0p_cjj31_1p_ctu8_0p_ctd8_1p_ctj8_0p_cQu8_0p_cQd8_0p_ctu1_0p_ctd1_0p_ctj1_0p_cQu1_0p_cQd1_0p'> +6.1139206e+01 </wgt>
<wgt id='ctGRe_0p_cQj18_0p_cQj38_0p_cQj11_0p_cjj31_1p_ctu8_0p_ctd8_0p_ctj8_1p_cQu8_0p_cQd8_0p_ctu1_0p_ctd1_0p_ctj1_0p_cQu1_0p_cQd1_0p'> +6.1139206e+01 </wgt>
<wgt id='ctGRe_0p_cQj18_0p_cQj38_0p_cQj11_0p_cjj31_1p_ctu8_0p_ctd8_0p_ctj8_0p_cQu8_1p_cQd8_0p_ctu1_0p_ctd1_0p_ctj1_0p_cQu1_0p_cQd1_0p'> +6.3456837e+01 </wgt>
<wgt id='ctGRe_0p_cQj18_0p_cQj38_0p_cQj11_0p_cjj31_1p_ctu8_0p_ctd8_0p_ctj8_0p_cQu8_0p_cQd8_1p_ctu1_0p_ctd1_0p_ctj1_0p_cQu1_0p_cQd1_0p'> +6.1139206e+01 </wgt>
<wgt id='ctGRe_0p_cQj18_0p_cQj38_0p_cQj11_0p_cjj31_1p_ctu8_0p_ctd8_0p_ctj8_0p_cQu8_0p_cQd8_0p_ctu1_1p_ctd1_0p_ctj1_0p_cQu1_0p_cQd1_0p'> +8.1502791e+01 </wgt>
<wgt id='ctGRe_0p_cQj18_0p_cQj38_0p_cQj11_0p_cjj31_1p_ctu8_0p_ctd8_0p_ctj8_0p_cQu8_0p_cQd8_0p_ctu1_0p_ctd1_1p_ctj1_0p_cQu1_0p_cQd1_0p'> +6.1139206e+01 </wgt>
<wgt id='ctGRe_0p_cQj18_0p_cQj38_0p_cQj11_0p_cjj31_1p_ctu8_0p_ctd8_0p_ctj8_0p_cQu8_0p_cQd8_0p_ctu1_0p_ctd1_0p_ctj1_1p_cQu1_0p_cQd1_0p'> +6.1139206e+01 </wgt>
<wgt id='ctGRe_0p_cQj18_0p_cQj38_0p_cQj11_0p_cjj31_1p_ctu8_0p_ctd8_0p_ctj8_0p_cQu8_0p_cQd8_0p_ctu1_0p_ctd1_0p_ctj1_0p_cQu1_1p_cQd1_0p'> +6.2384308e+01 </wgt>
<wgt id='ctGRe_0p_cQj18_0p_cQj38_0p_cQj11_0p_cjj31_1p_ctu8_0p_ctd8_0p_ctj8_0p_cQu8_0p_cQd8_0p_ctu1_0p_ctd1_0p_ctj1_0p_cQu1_0p_cQd1_1p'> +6.1139206e+01 </wgt>
<wgt id='ctGRe_0p_cQj18_0p_cQj38_0p_cQj11_0p_cjj31_0p_ctu8_2p_ctd8_0p_ctj8_0p_cQu8_0p_cQd8_0p_ctu1_0p_ctd1_0p_ctj1_0p_cQu1_0p_cQd1_0p'> +6.1139206e+01 </wgt>
<wgt id='ctGRe_0p_cQj18_0p_cQj38_0p_cQj11_0p_cjj31_0p_ctu8_1p_ctd8_1p_ctj8_0p_cQu8_0p_cQd8_0p_ctu1_0p_ctd1_0p_ctj1_0p_cQu1_0p_cQd1_0p'> +6.1139206e+01 </wgt>
<wgt id='ctGRe_0p_cQj18_0p_cQj38_0p_cQj11_0p_cjj31_0p_ctu8_1p_ctd8_0p_ctj8_1p_cQu8_0p_cQd8_0p_ctu1_0p_ctd1_0p_ctj1_0p_cQu1_0p_cQd1_0p'> +6.1139206e+01 </wgt>
<wgt id='ctGRe_0p_cQj18_0p_cQj38_0p_cQj11_0p_cjj31_0p_ctu8_1p_ctd8_0p_ctj8_0p_cQu8_1p_cQd8_0p_ctu1_0p_ctd1_0p_ctj1_0p_cQu1_0p_cQd1_0p'> +6.3456837e+01 </wgt>
<wgt id='ctGRe_0p_cQj18_0p_cQj38_0p_cQj11_0p_cjj31_0p_ctu8_1p_ctd8_0p_ctj8_0p_cQu8_0p_cQd8_1p_ctu1_0p_ctd1_0p_ctj1_0p_cQu1_0p_cQd1_0p'> +6.1139206e+01 </wgt>
<wgt id='ctGRe_0p_cQj18_0p_cQj38_0p_cQj11_0p_cjj31_0p_ctu8_1p_ctd8_0p_ctj8_0p_cQu8_0p_cQd8_0p_ctu1_1p_ctd1_0p_ctj1_0p_cQu1_0p_cQd1_0p'> +8.1502791e+01 </wgt>
<wgt id='ctGRe_0p_cQj18_0p_cQj38_0p_cQj11_0p_cjj31_0p_ctu8_1p_ctd8_0p_ctj8_0p_cQu8_0p_cQd8_0p_ctu1_0p_ctd1_1p_ctj1_0p_cQu1_0p_cQd1_0p'> +6.1139206e+01 </wgt>
<wgt id='ctGRe_0p_cQj18_0p_cQj38_0p_cQj11_0p_cjj31_0p_ctu8_1p_ctd8_0p_ctj8_0p_cQu8_0p_cQd8_0p_ctu1_0p_ctd1_0p_ctj1_1p_cQu1_0p_cQd1_0p'> +6.1139206e+01 </wgt>
<wgt id='ctGRe_0p_cQj18_0p_cQj38_0p_cQj11_0p_cjj31_0p_ctu8_1p_ctd8_0p_ctj8_0p_cQu8_0p_cQd8_0p_ctu1_0p_ctd1_0p_ctj1_0p_cQu1_1p_cQd1_0p'> +6.2384308e+01 </wgt>
<wgt id='ctGRe_0p_cQj18_0p_cQj38_0p_cQj11_0p_cjj31_0p_ctu8_1p_ctd8_0p_ctj8_0p_cQu8_0p_cQd8_0p_ctu1_0p_ctd1_0p_ctj1_0p_cQu1_0p_cQd1_1p'> +6.1139206e+01 </wgt>
<wgt id='ctGRe_0p_cQj18_0p_cQj38_0p_cQj11_0p_cjj31_0p_ctu8_0p_ctd8_2p_ctj8_0p_cQu8_0p_cQd8_0p_ctu1_0p_ctd1_0p_ctj1_0p_cQu1_0p_cQd1_0p'> +6.1139206e+01 </wgt>
<wgt id='ctGRe_0p_cQj18_0p_cQj38_0p_cQj11_0p_cjj31_0p_ctu8_0p_ctd8_1p_ctj8_1p_cQu8_0p_cQd8_0p_ctu1_0p_ctd1_0p_ctj1_0p_cQu1_0p_cQd1_0p'> +6.1139206e+01 </wgt>
<wgt id='ctGRe_0p_cQj18_0p_cQj38_0p_cQj11_0p_cjj31_0p_ctu8_0p_ctd8_1p_ctj8_0p_cQu8_1p_cQd8_0p_ctu1_0p_ctd1_0p_ctj1_0p_cQu1_0p_cQd1_0p'> +6.3456837e+01 </wgt>
<wgt id='ctGRe_0p_cQj18_0p_cQj38_0p_cQj11_0p_cjj31_0p_ctu8_0p_ctd8_1p_ctj8_0p_cQu8_0p_cQd8_1p_ctu1_0p_ctd1_0p_ctj1_0p_cQu1_0p_cQd1_0p'> +6.1139206e+01 </wgt>
<wgt id='ctGRe_0p_cQj18_0p_cQj38_0p_cQj11_0p_cjj31_0p_ctu8_0p_ctd8_1p_ctj8_0p_cQu8_0p_cQd8_0p_ctu1_1p_ctd1_0p_ctj1_0p_cQu1_0p_cQd1_0p'> +8.1502791e+01 </wgt>
<wgt id='ctGRe_0p_cQj18_0p_cQj38_0p_cQj11_0p_cjj31_0p_ctu8_0p_ctd8_1p_ctj8_0p_cQu8_0p_cQd8_0p_ctu1_0p_ctd1_1p_ctj1_0p_cQu1_0p_cQd1_0p'> +6.1139206e+01 </wgt>
<wgt id='ctGRe_0p_cQj18_0p_cQj38_0p_cQj11_0p_cjj31_0p_ctu8_0p_ctd8_1p_ctj8_0p_cQu8_0p_cQd8_0p_ctu1_0p_ctd1_0p_ctj1_1p_cQu1_0p_cQd1_0p'> +6.1139206e+01 </wgt>
<wgt id='ctGRe_0p_cQj18_0p_cQj38_0p_cQj11_0p_cjj31_0p_ctu8_0p_ctd8_1p_ctj8_0p_cQu8_0p_cQd8_0p_ctu1_0p_ctd1_0p_ctj1_0p_cQu1_1p_cQd1_0p'> +6.2384308e+01 </wgt>
<wgt id='ctGRe_0p_cQj18_0p_cQj38_0p_cQj11_0p_cjj31_0p_ctu8_0p_ctd8_1p_ctj8_0p_cQu8_0p_cQd8_0p_ctu1_0p_ctd1_0p_ctj1_0p_cQu1_0p_cQd1_1p'> +6.1139206e+01 </wgt>
<wgt id='ctGRe_0p_cQj18_0p_cQj38_0p_cQj11_0p_cjj31_0p_ctu8_0p_ctd8_0p_ctj8_2p_cQu8_0p_cQd8_0p_ctu1_0p_ctd1_0p_ctj1_0p_cQu1_0p_cQd1_0p'> +6.1139206e+01 </wgt>
<wgt id='ctGRe_0p_cQj18_0p_cQj38_0p_cQj11_0p_cjj31_0p_ctu8_0p_ctd8_0p_ctj8_1p_cQu8_1p_cQd8_0p_ctu1_0p_ctd1_0p_ctj1_0p_cQu1_0p_cQd1_0p'> +6.3456837e+01 </wgt>
<wgt id='ctGRe_0p_cQj18_0p_cQj38_0p_cQj11_0p_cjj31_0p_ctu8_0p_ctd8_0p_ctj8_1p_cQu8_0p_cQd8_1p_ctu1_0p_ctd1_0p_ctj1_0p_cQu1_0p_cQd1_0p'> +6.1139206e+01 </wgt>
<wgt id='ctGRe_0p_cQj18_0p_cQj38_0p_cQj11_0p_cjj31_0p_ctu8_0p_ctd8_0p_ctj8_1p_cQu8_0p_cQd8_0p_ctu1_1p_ctd1_0p_ctj1_0p_cQu1_0p_cQd1_0p'> +8.1502791e+01 </wgt>
<wgt id='ctGRe_0p_cQj18_0p_cQj38_0p_cQj11_0p_cjj31_0p_ctu8_0p_ctd8_0p_ctj8_1p_cQu8_0p_cQd8_0p_ctu1_0p_ctd1_1p_ctj1_0p_cQu1_0p_cQd1_0p'> +6.1139206e+01 </wgt>
<wgt id='ctGRe_0p_cQj18_0p_cQj38_0p_cQj11_0p_cjj31_0p_ctu8_0p_ctd8_0p_ctj8_1p_cQu8_0p_cQd8_0p_ctu1_0p_ctd1_0p_ctj1_1p_cQu1_0p_cQd1_0p'> +6.1139206e+01 </wgt>
<wgt id='ctGRe_0p_cQj18_0p_cQj38_0p_cQj11_0p_cjj31_0p_ctu8_0p_ctd8_0p_ctj8_1p_cQu8_0p_cQd8_0p_ctu1_0p_ctd1_0p_ctj1_0p_cQu1_1p_cQd1_0p'> +6.2384308e+01 </wgt>
<wgt id='ctGRe_0p_cQj18_0p_cQj38_0p_cQj11_0p_cjj31_0p_ctu8_0p_ctd8_0p_ctj8_1p_cQu8_0p_cQd8_0p_ctu1_0p_ctd1_0p_ctj1_0p_cQu1_0p_cQd1_1p'> +6.1139206e+01 </wgt>
<wgt id='ctGRe_0p_cQj18_0p_cQj38_0p_cQj11_0p_cjj31_0p_ctu8_0p_ctd8_0p_ctj8_0p_cQu8_2p_cQd8_0p_ctu1_0p_ctd1_0p_ctj1_0p_cQu1_0p_cQd1_0p'> +6.6291169e+01 </wgt>
<wgt id='ctGRe_0p_cQj18_0p_cQj38_0p_cQj11_0p_cjj31_0p_ctu8_0p_ctd8_0p_ctj8_0p_cQu8_1p_cQd8_1p_ctu1_0p_ctd1_0p_ctj1_0p_cQu1_0p_cQd1_0p'> +6.3456837e+01 </wgt>
<wgt id='ctGRe_0p_cQj18_0p_cQj38_0p_cQj11_0p_cjj31_0p_ctu8_0p_ctd8_0p_ctj8_0p_cQu8_1p_cQd8_0p_ctu1_1p_ctd1_0p_ctj1_0p_cQu1_0p_cQd1_0p'> +8.3820422e+01 </wgt>
<wgt id='ctGRe_0p_cQj18_0p_cQj38_0p_cQj11_0p_cjj31_0p_ctu8_0p_ctd8_0p_ctj8_0p_cQu8_1p_cQd8_0p_ctu1_0p_ctd1_1p_ctj1_0p_cQu1_0p_cQd1_0p'> +6.3456837e+01 </wgt>
<wgt id='ctGRe_0p_cQj18_0p_cQj38_0p_cQj11_0p_cjj31_0p_ctu8_0p_ctd8_0p_ctj8_0p_cQu8_1p_cQd8_0p_ctu1_0p_ctd1_0p_ctj1_1p_cQu1_0p_cQd1_0p'> +6.3456837e+01 </wgt>
<wgt id='ctGRe_0p_cQj18_0p_cQj38_0p_cQj11_0p_cjj31_0p_ctu8_0p_ctd8_0p_ctj8_0p_cQu8_1p_cQd8_0p_ctu1_0p_ctd1_0p_ctj1_0p_cQu1_1p_cQd1_0p'> +6.4701939e+01 </wgt>
<wgt id='ctGRe_0p_cQj18_0p_cQj38_0p_cQj11_0p_cjj31_0p_ctu8_0p_ctd8_0p_ctj8_0p_cQu8_1p_cQd8_0p_ctu1_0p_ctd1_0p_ctj1_0p_cQu1_0p_cQd1_1p'> +6.3456837e+01 </wgt>
<wgt id='ctGRe_0p_cQj18_0p_cQj38_0p_cQj11_0p_cjj31_0p_ctu8_0p_ctd8_0p_ctj8_0p_cQu8_0p_cQd8_2p_ctu1_0p_ctd1_0p_ctj1_0p_cQu1_0p_cQd1_0p'> +6.1139206e+01 </wgt>
<wgt id='ctGRe_0p_cQj18_0p_cQj38_0p_cQj11_0p_cjj31_0p_ctu8_0p_ctd8_0p_ctj8_0p_cQu8_0p_cQd8_1p_ctu1_1p_ctd1_0p_ctj1_0p_cQu1_0p_cQd1_0p'> +8.1502791e+01 </wgt>
<wgt id='ctGRe_0p_cQj18_0p_cQj38_0p_cQj11_0p_cjj31_0p_ctu8_0p_ctd8_0p_ctj8_0p_cQu8_0p_cQd8_1p_ctu1_0p_ctd1_1p_ctj1_0p_cQu1_0p_cQd1_0p'> +6.1139206e+01 </wgt>
<wgt id='ctGRe_0p_cQj18_0p_cQj38_0p_cQj11_0p_cjj31_0p_ctu8_0p_ctd8_0p_ctj8_0p_cQu8_0p_cQd8_1p_ctu1_0p_ctd1_0p_ctj1_1p_cQu1_0p_cQd1_0p'> +6.1139206e+01 </wgt>
<wgt id='ctGRe_0p_cQj18_0p_cQj38_0p_cQj11_0p_cjj31_0p_ctu8_0p_ctd8_0p_ctj8_0p_cQu8_0p_cQd8_1p_ctu1_0p_ctd1_0p_ctj1_0p_cQu1_1p_cQd1_0p'> +6.2384308e+01 </wgt>
<wgt id='ctGRe_0p_cQj18_0p_cQj38_0p_cQj11_0p_cjj31_0p_ctu8_0p_ctd8_0p_ctj8_0p_cQu8_0p_cQd8_1p_ctu1_0p_ctd1_0p_ctj1_0p_cQu1_0p_cQd1_1p'> +6.1139206e+01 </wgt>
<wgt id='ctGRe_0p_cQj18_0p_cQj38_0p_cQj11_0p_cjj31_0p_ctu8_0p_ctd8_0p_ctj8_0p_cQu8_0p_cQd8_0p_ctu1_2p_ctd1_0p_ctj1_0p_cQu1_0p_cQd1_0p'> +1.3214147e+02 </wgt>
<wgt id='ctGRe_0p_cQj18_0p_cQj38_0p_cQj11_0p_cjj31_0p_ctu8_0p_ctd8_0p_ctj8_0p_cQu8_0p_cQd8_0p_ctu1_1p_ctd1_1p_ctj1_0p_cQu1_0p_cQd1_0p'> +8.1502791e+01 </wgt>
<wgt id='ctGRe_0p_cQj18_0p_cQj38_0p_cQj11_0p_cjj31_0p_ctu8_0p_ctd8_0p_ctj8_0p_cQu8_0p_cQd8_0p_ctu1_1p_ctd1_0p_ctj1_1p_cQu1_0p_cQd1_0p'> +8.1502791e+01 </wgt>
<wgt id='ctGRe_0p_cQj18_0p_cQj38_0p_cQj11_0p_cjj31_0p_ctu8_0p_ctd8_0p_ctj8_0p_cQu8_0p_cQd8_0p_ctu1_1p_ctd1_0p_ctj1_0p_cQu1_1p_cQd1_0p'> +8.2682148e+01 </wgt>
<wgt id='ctGRe_0p_cQj18_0p_cQj38_0p_cQj11_0p_cjj31_0p_ctu8_0p_ctd8_0p_ctj8_0p_cQu8_0p_cQd8_0p_ctu1_1p_ctd1_0p_ctj1_0p_cQu1_0p_cQd1_1p'> +8.1502791e+01 </wgt>
<wgt id='ctGRe_0p_cQj18_0p_cQj38_0p_cQj11_0p_cjj31_0p_ctu8_0p_ctd8_0p_ctj8_0p_cQu8_0p_cQd8_0p_ctu1_0p_ctd1_2p_ctj1_0p_cQu1_0p_cQd1_0p'> +6.1139206e+01 </wgt>
<wgt id='ctGRe_0p_cQj18_0p_cQj38_0p_cQj11_0p_cjj31_0p_ctu8_0p_ctd8_0p_ctj8_0p_cQu8_0p_cQd8_0p_ctu1_0p_ctd1_1p_ctj1_1p_cQu1_0p_cQd1_0p'> +6.1139206e+01 </wgt>
<wgt id='ctGRe_0p_cQj18_0p_cQj38_0p_cQj11_0p_cjj31_0p_ctu8_0p_ctd8_0p_ctj8_0p_cQu8_0p_cQd8_0p_ctu1_0p_ctd1_1p_ctj1_0p_cQu1_1p_cQd1_0p'> +6.2384308e+01 </wgt>
<wgt id='ctGRe_0p_cQj18_0p_cQj38_0p_cQj11_0p_cjj31_0p_ctu8_0p_ctd8_0p_ctj8_0p_cQu8_0p_cQd8_0p_ctu1_0p_ctd1_1p_ctj1_0p_cQu1_0p_cQd1_1p'> +6.1139206e+01 </wgt>
<wgt id='ctGRe_0p_cQj18_0p_cQj38_0p_cQj11_0p_cjj31_0p_ctu8_0p_ctd8_0p_ctj8_0p_cQu8_0p_cQd8_0p_ctu1_0p_ctd1_0p_ctj1_2p_cQu1_0p_cQd1_0p'> +6.1139206e+01 </wgt>
<wgt id='ctGRe_0p_cQj18_0p_cQj38_0p_cQj11_0p_cjj31_0p_ctu8_0p_ctd8_0p_ctj8_0p_cQu8_0p_cQd8_0p_ctu1_0p_ctd1_0p_ctj1_1p_cQu1_1p_cQd1_0p'> +6.2384308e+01 </wgt>
<wgt id='ctGRe_0p_cQj18_0p_cQj38_0p_cQj11_0p_cjj31_0p_ctu8_0p_ctd8_0p_ctj8_0p_cQu8_0p_cQd8_0p_ctu1_0p_ctd1_0p_ctj1_1p_cQu1_0p_cQd1_1p'> +6.1139206e+01 </wgt>
<wgt id='ctGRe_0p_cQj18_0p_cQj38_0p_cQj11_0p_cjj31_0p_ctu8_0p_ctd8_0p_ctj8_0p_cQu8_0p_cQd8_0p_ctu1_0p_ctd1_0p_ctj1_0p_cQu1_2p_cQd1_0p'> +6.5954562e+01 </wgt>
<wgt id='ctGRe_0p_cQj18_0p_cQj38_0p_cQj11_0p_cjj31_0p_ctu8_0p_ctd8_0p_ctj8_0p_cQu8_0p_cQd8_0p_ctu1_0p_ctd1_0p_ctj1_0p_cQu1_1p_cQd1_1p'> +6.2384308e+01 </wgt>
<wgt id='ctGRe_0p_cQj18_0p_cQj38_0p_cQj11_0p_cjj31_0p_ctu8_0p_ctd8_0p_ctj8_0p_cQu8_0p_cQd8_0p_ctu1_0p_ctd1_0p_ctj1_0p_cQu1_0p_cQd1_2p'> +6.1139206e+01 </wgt>
<wgt id='1001'> +6.1139206e+01 </wgt>
<wgt id='1002'> +5.2281642e+01 </wgt>
<wgt id='1003'> +5.2271661e+01 </wgt>
<wgt id='1004'> +6.2764511e+01 </wgt>
<wgt id='1005'> +4.8733052e+01 </wgt>
<wgt id='1006'> +5.1368304e+01 </wgt>
<wgt id='1007'> +4.4482265e+01 </wgt>
<wgt id='1008'> +4.4474427e+01 </wgt>
<wgt id='1009'> +5.2616249e+01 </wgt>
<wgt id='1010'> +4.1682192e+01 </wgt>
<wgt id='1011'> +7.4045604e+01 </wgt>
<wgt id='1012'> +6.2366452e+01 </wgt>
<wgt id='1013'> +6.2353462e+01 </wgt>
<wgt id='1014'> +7.6220773e+01 </wgt>
<wgt id='1015'> +5.7768912e+01 </wgt>
<wgt id='1016'> +6.0706190e+01 </wgt>
<wgt id='1017'> +5.1769943e+01 </wgt>
<wgt id='1018'> +5.1759904e+01 </wgt>
<wgt id='1019'> +6.2353462e+01 </wgt>
<wgt id='1020'> +4.8204813e+01 </wgt>
<wgt id='1021'> +5.1004490e+01 </wgt>
<wgt id='1022'> +4.4046902e+01 </wgt>
<wgt id='1023'> +4.4039008e+01 </wgt>
<wgt id='1024'> +5.2271661e+01 </wgt>
<wgt id='1025'> +4.1230380e+01 </wgt>
<wgt id='1026'> +7.3521180e+01 </wgt>
<wgt id='1027'> +6.1756050e+01 </wgt>
<wgt id='1028'> +6.1743001e+01 </wgt>
<wgt id='1029'> +7.5721598e+01 </wgt>
<wgt id='1030'> +5.7142729e+01 </wgt>
<wgt id='1031'> +6.1301255e+01 </wgt>
<wgt id='1032'> +5.2626070e+01 </wgt>
<wgt id='1033'> +5.2616249e+01 </wgt>
<wgt id='1034'> +6.2884321e+01 </wgt>
<wgt id='1035'> +4.9125920e+01 </wgt>
<wgt id='1036'> +5.1504456e+01 </wgt>
<wgt id='1037'> +4.4775311e+01 </wgt>
<wgt id='1038'> +4.4767614e+01 </wgt>
<wgt id='1039'> +5.2716687e+01 </wgt>
<wgt id='1040'> +4.2018218e+01 </wgt>
<wgt id='1041'> +7.4241862e+01 </wgt>
<wgt id='1042'> +6.2777318e+01 </wgt>
<wgt id='1043'> +6.2764511e+01 </wgt>
<wgt id='1044'> +7.6366269e+01 </wgt>
<wgt id='1045'> +5.8234623e+01 </wgt>
<wgt id='1046'> +6.1139206e+01 </wgt>
<wgt id='1047'> +6.1139206e+01 </wgt>
<wgt id='1048'> +6.1139206e+01 </wgt>
<wgt id='1049'> +6.1098494e+01 </wgt>
<wgt id='1050'> +6.1081607e+01 </wgt>
<wgt id='1051'> +6.1020052e+01 </wgt>
<wgt id='1052'> +6.1094416e+01 </wgt>
<wgt id='1053'> +6.1240149e+01 </wgt>
<wgt id='1054'> +6.0915728e+01 </wgt>
<wgt id='1055'> +6.1162703e+01 </wgt>
<wgt id='1056'> +6.0906369e+01 </wgt>
<wgt id='1057'> +6.1503750e+01 </wgt>
<wgt id='1058'> +6.0842968e+01 </wgt>
<wgt id='1059'> +6.1140329e+01 </wgt>
<wgt id='1060'> +6.1009417e+01 </wgt>
<wgt id='1061'> +6.1164756e+01 </wgt>
<wgt id='1062'> +6.1313101e+01 </wgt>
<wgt id='1063'> +6.1501572e+01 </wgt>
<wgt id='1064'> +6.1062092e+01 </wgt>
<wgt id='1065'> +6.1053591e+01 </wgt>
<wgt id='1066'> +6.0800448e+01 </wgt>
<wgt id='1067'> +6.1139660e+01 </wgt>
<wgt id='1068'> +6.0916468e+01 </wgt>
<wgt id='1069'> +6.0890640e+01 </wgt>
<wgt id='1070'> +6.1516437e+01 </wgt>
<wgt id='1071'> +6.0894198e+01 </wgt>
<wgt id='1072'> +6.0891783e+01 </wgt>
<wgt id='1073'> +6.0993965e+01 </wgt>
<wgt id='1074'> +6.1104596e+01 </wgt>
<wgt id='1075'> +6.1129025e+01 </wgt>
<wgt id='1076'> +6.1378612e+01 </wgt>
<wgt id='1077'> +6.1507847e+01 </wgt>
<wgt id='1078'> +6.1241794e+01 </wgt>
<wgt id='1079'> +6.1840377e+01 </wgt>
<wgt id='1080'> +6.1066174e+01 </wgt>
<wgt id='1081'> +6.1226136e+01 </wgt>
<wgt id='1082'> +6.1340918e+01 </wgt>
<wgt id='1083'> +6.1049222e+01 </wgt>
<wgt id='1084'> +6.0835939e+01 </wgt>
<wgt id='1085'> +6.1577155e+01 </wgt>
<wgt id='1086'> +6.1155489e+01 </wgt>
<wgt id='1087'> +6.1115760e+01 </wgt>
<wgt id='1088'> +6.1435009e+01 </wgt>
<wgt id='1089'> +6.1315575e+01 </wgt>
<wgt id='1090'> +6.1165942e+01 </wgt>
<wgt id='1091'> +6.1241520e+01 </wgt>
<wgt id='1092'> +6.1075154e+01 </wgt>
<wgt id='1093'> +6.1102525e+01 </wgt>
<wgt id='1094'> +6.0984351e+01 </wgt>
<wgt id='1095'> +6.1060142e+01 </wgt>
<wgt id='1096'> +6.1026253e+01 </wgt>
<wgt id='1097'> +6.1071225e+01 </wgt>
<wgt id='1098'> +6.1109944e+01 </wgt>
<wgt id='1099'> +6.1059334e+01 </wgt>
<wgt id='1100'> +6.1266691e+01 </wgt>
<wgt id='1101'> +6.1050133e+01 </wgt>
<wgt id='1102'> +6.1185733e+01 </wgt>
<wgt id='1103'> +6.1187727e+01 </wgt>
<wgt id='1104'> +6.1347992e+01 </wgt>
<wgt id='1105'> +6.1261207e+01 </wgt>
<wgt id='1106'> +6.1088357e+01 </wgt>
<wgt id='1107'> +6.1286852e+01 </wgt>
<wgt id='1108'> +6.1165839e+01 </wgt>
<wgt id='1109'> +6.1124978e+01 </wgt>
<wgt id='1110'> +6.1103869e+01 </wgt>
<wgt id='1111'> +6.1203624e+01 </wgt>
<wgt id='1112'> +6.1217171e+01 </wgt>
<wgt id='1113'> +6.1141458e+01 </wgt>
<wgt id='1114'> +6.1086008e+01 </wgt>
<wgt id='1115'> +6.1193369e+01 </wgt>
<wgt id='1116'> +6.1041944e+01 </wgt>
<wgt id='1117'> +6.1149852e+01 </wgt>
<wgt id='1118'> +6.1062262e+01 </wgt>
<wgt id='1119'> +6.1138123e+01 </wgt>
<wgt id='1120'> +6.1155923e+01 </wgt>
<wgt id='1121'> +6.1260510e+01 </wgt>
<wgt id='1122'> +6.1144316e+01 </wgt>
<wgt id='1123'> +6.1165305e+01 </wgt>
<wgt id='1124'> +6.1122826e+01 </wgt>
<wgt id='1125'> +6.1092019e+01 </wgt>
<wgt id='1126'> +6.1136639e+01 </wgt>
<wgt id='1127'> +6.1127845e+01 </wgt>
<wgt id='1128'> +6.1157682e+01 </wgt>
<wgt id='1129'> +6.1131280e+01 </wgt>
<wgt id='1130'> +6.1150199e+01 </wgt>
<wgt id='1131'> +6.1187434e+01 </wgt>
<wgt id='1132'> +6.1158503e+01 </wgt>
<wgt id='1133'> +6.1133905e+01 </wgt>
<wgt id='1134'> +6.1074685e+01 </wgt>
<wgt id='1135'> +6.1172624e+01 </wgt>
<wgt id='1136'> +6.1103306e+01 </wgt>
<wgt id='1137'> +6.1184360e+01 </wgt>
<wgt id='1138'> +6.1162690e+01 </wgt>
<wgt id='1139'> +6.1130811e+01 </wgt>
<wgt id='1140'> +6.1190962e+01 </wgt>
<wgt id='1141'> +6.1129762e+01 </wgt>
<wgt id='1142'> +6.1139482e+01 </wgt>
<wgt id='1143'> +6.1150602e+01 </wgt>
<wgt id='1144'> +6.1154600e+01 </wgt>
<wgt id='1145'> +6.1165231e+01 </wgt>
<wgt id='1146'> +6.1136600e+01 </wgt>
<wgt id='1147'> +6.1161699e+01 </wgt>
<wgt id='1148'> +6.1139206e+01 </wgt>
<wgt id='1149'> +5.9301879e+01 </wgt>
<wgt id='1150'> +6.3096765e+01 </wgt>
<wgt id='1151'> +6.1139206e+01 </wgt>
<wgt id='1152'> +6.5631443e+01 </wgt>
<wgt id='1153'> +6.2146682e+01 </wgt>
<wgt id='1154'> +6.0451739e+01 </wgt>
<wgt id='1155'> +6.0243066e+01 </wgt>
<wgt id='1156'> +5.9417812e+01 </wgt>
<wgt id='1157'> +6.3530126e+01 </wgt>
<wgt id='1158'> +6.2510088e+01 </wgt>
<wgt id='1159'> +6.0489425e+01 </wgt>
<wgt id='1160'> +5.9502148e+01 </wgt>
<wgt id='1161'> +5.6470764e+01 </wgt>
<wgt id='1162'> +6.1100230e+01 </wgt>
<wgt id='1163'> +5.9646963e+01 </wgt>
<wgt id='1164'> +5.9878446e+01 </wgt>
<wgt id='1165'> +6.2972225e+01 </wgt>
<wgt id='1166'> +6.2028387e+01 </wgt>
<wgt id='1167'> +6.0786058e+01 </wgt>
<wgt id='1168'> +6.0952399e+01 </wgt>
<wgt id='1169'> +6.0062345e+01 </wgt>
<wgt id='1170'> +6.1964823e+01 </wgt>
<wgt id='1171'> +5.8333269e+01 </wgt>
<wgt id='1172'> +6.1891904e+01 </wgt>
<wgt id='1173'> +6.3204222e+01 </wgt>
<wgt id='1174'> +6.2531903e+01 </wgt>
<wgt id='1175'> +5.9112364e+01 </wgt>
<wgt id='1176'> +6.1768304e+01 </wgt>
<wgt id='1177'> +6.4462761e+01 </wgt>
<wgt id='1178'> +5.9619570e+01 </wgt>
<wgt id='1179'> +6.1566198e+01 </wgt>
<wgt id='1180'> +6.0913169e+01 </wgt>
<wgt id='1181'> +6.1442240e+01 </wgt>
<wgt id='1182'> +6.2985347e+01 </wgt>
<wgt id='1183'> +6.0790632e+01 </wgt>
<wgt id='1184'> +6.3272297e+01 </wgt>
<wgt id='1185'> +5.8294012e+01 </wgt>
<wgt id='1186'> +6.1099206e+01 </wgt>
<wgt id='1187'> +6.2652811e+01 </wgt>
<wgt id='1188'> +6.0739339e+01 </wgt>
<wgt id='1189'> +6.0678891e+01 </wgt>
<wgt id='1190'> +6.1227530e+01 </wgt>
<wgt id='1191'> +6.3245925e+01 </wgt>
<wgt id='1192'> +6.1910753e+01 </wgt>
<wgt id='1193'> +6.1820402e+01 </wgt>
<wgt id='1194'> +6.0870431e+01 </wgt>
<wgt id='1195'> +6.2246097e+01 </wgt>
<wgt id='1196'> +6.3106442e+01 </wgt>
<wgt id='1197'> +6.2240339e+01 </wgt>
<wgt id='1198'> +6.1875222e+01 </wgt>
<wgt id='1199'> +6.1135823e+01 </wgt>
<wgt id='1200'> +6.2386205e+01 </wgt>
<wgt id='1201'> +5.9073290e+01 </wgt>
<wgt id='1202'> +6.0432251e+01 </wgt>
<wgt id='1203'> +6.1264772e+01 </wgt>
<wgt id='1204'> +6.1364633e+01 </wgt>
<wgt id='1205'> +6.2117853e+01 </wgt>
<wgt id='1206'> +6.3193343e+01 </wgt>
<wgt id='1207'> +6.0261661e+01 </wgt>
<wgt id='1208'> +6.1713257e+01 </wgt>
<wgt id='1209'> +6.1793222e+01 </wgt>
<wgt id='1210'> +6.2297100e+01 </wgt>
<wgt id='1211'> +6.3561684e+01 </wgt>
<wgt id='1212'> +6.0634279e+01 </wgt>
<wgt id='1213'> +6.0240536e+01 </wgt>
<wgt id='1214'> +6.0398690e+01 </wgt>
<wgt id='1215'> +6.0467214e+01 </wgt>
<wgt id='1216'> +6.2730684e+01 </wgt>
<wgt id='1217'> +6.4187926e+01 </wgt>
<wgt id='1218'> +6.1977752e+01 </wgt>
<wgt id='1219'> +6.1706970e+01 </wgt>
<wgt id='1220'> +6.1976961e+01 </wgt>
<wgt id='1221'> +5.9957399e+01 </wgt>
<wgt id='1222'> +6.0444272e+01 </wgt>
<wgt id='1223'> +5.9153878e+01 </wgt>
<wgt id='1224'> +5.8907282e+01 </wgt>
<wgt id='1225'> +5.8818497e+01 </wgt>
<wgt id='1226'> +5.9549439e+01 </wgt>
<wgt id='1227'> +6.3907190e+01 </wgt>
<wgt id='1228'> +5.8514786e+01 </wgt>
<wgt id='1229'> +6.2588490e+01 </wgt>
<wgt id='1230'> +6.1257689e+01 </wgt>
<wgt id='1231'> +6.0651853e+01 </wgt>
<wgt id='1232'> +6.1000378e+01 </wgt>
<wgt id='1233'> +6.0786058e+01 </wgt>
<wgt id='1234'> +6.0442224e+01 </wgt>
<wgt id='1235'> +6.0147229e+01 </wgt>
<wgt id='1236'> +6.1466809e+01 </wgt>
<wgt id='1237'> +6.1104431e+01 </wgt>
<wgt id='1238'> +5.8690902e+01 </wgt>
<wgt id='1239'> +6.0215393e+01 </wgt>
<wgt id='1240'> +5.6854772e+01 </wgt>
<wgt id='1241'> +6.1142915e+01 </wgt>
<wgt id='1242'> +6.1593732e+01 </wgt>
<wgt id='1243'> +5.9248589e+01 </wgt>
<wgt id='1244'> +5.9872592e+01 </wgt>
<wgt id='1245'> +5.9733282e+01 </wgt>
<wgt id='1246'> +6.0092878e+01 </wgt>
<wgt id='1247'> +6.3252965e+01 </wgt>
<wgt id='1248'> +6.1713413e+01 </wgt>
<wgt id='1249'> +6.1451034e+01 </wgt>
<wgt id='1250'> +6.1624255e+01 </wgt>
<wgt id='1251'> +6.1370890e+01 </wgt>
<wgt id='1252'> +6.1198144e+01 </wgt>
<wgt id='1253'> +6.1197201e+01 </wgt>
<wgt id='1254'> +6.1272983e+01 </wgt>
<wgt id='1255'> +6.1236547e+01 </wgt>
<wgt id='1256'> +6.1291849e+01 </wgt>
<wgt id='1257'> +6.1196897e+01 </wgt>
<wgt id='1258'> +6.1226096e+01 </wgt>
<wgt id='1259'> +6.1088378e+01 </wgt>
<wgt id='1260'> +6.1144122e+01 </wgt>
<wgt id='1261'> +6.1448367e+01 </wgt>
<wgt id='1262'> +6.1077688e+01 </wgt>
<wgt id='1263'> +6.1038920e+01 </wgt>
<wgt id='1264'> +6.1341057e+01 </wgt>
<wgt id='1265'> +6.1167242e+01 </wgt>
<wgt id='1266'> +6.1824887e+01 </wgt>
<wgt id='1267'> +6.1283022e+01 </wgt>
<wgt id='1268'> +6.1533527e+01 </wgt>
<wgt id='1269'> +6.1099227e+01 </wgt>
<wgt id='1270'> +6.1079118e+01 </wgt>
<wgt id='1271'> +6.1295620e+01 </wgt>
<wgt id='1272'> +6.1314073e+01 </wgt>
<wgt id='1273'> +6.1457910e+01 </wgt>
<wgt id='1274'> +6.1426908e+01 </wgt>
<wgt id='1275'> +6.0778120e+01 </wgt>
<wgt id='1276'> +6.1099932e+01 </wgt>
<wgt id='1277'> +6.1366018e+01 </wgt>
<wgt id='1278'> +6.0772489e+01 </wgt>
<wgt id='1279'> +6.1433733e+01 </wgt>
<wgt id='1280'> +6.1439712e+01 </wgt>
<wgt id='1281'> +6.0410194e+01 </wgt>
<wgt id='1282'> +6.0582341e+01 </wgt>
<wgt id='1283'> +6.1269596e+01 </wgt>
<wgt id='1284'> +6.1174713e+01 </wgt>
<wgt id='1285'> +6.1279313e+01 </wgt>
<wgt id='1286'> +6.1263074e+01 </wgt>
<wgt id='1287'> +6.1004157e+01 </wgt>
<wgt id='1288'> +6.1174283e+01 </wgt>
<wgt id='1289'> +6.1307694e+01 </wgt>
<wgt id='1290'> +6.1164547e+01 </wgt>
<wgt id='1291'> +6.1169297e+01 </wgt>
<wgt id='1292'> +6.1112197e+01 </wgt>
<wgt id='1293'> +6.1271479e+01 </wgt>
<wgt id='1294'> +6.1085531e+01 </wgt>
<wgt id='1295'> +6.1244117e+01 </wgt>
<wgt id='1296'> +6.1160976e+01 </wgt>
<wgt id='1297'> +6.1380498e+01 </wgt>
<wgt id='1298'> +6.1383840e+01 </wgt>
<wgt id='1299'> +6.1264422e+01 </wgt>
<wgt id='1300'> +6.1302838e+01 </wgt>
<wgt id='1301'> +6.1119608e+01 </wgt>
<wgt id='1302'> +6.1160855e+01 </wgt>
<wgt id='1303'> +6.1340642e+01 </wgt>
<wgt id='1304'> +6.1185490e+01 </wgt>
<wgt id='1305'> +6.1226086e+01 </wgt>
<wgt id='1306'> +6.1246572e+01 </wgt>
<wgt id='1307'> +6.1101165e+01 </wgt>
<wgt id='1308'> +6.1162114e+01 </wgt>
<wgt id='1309'> +6.1234944e+01 </wgt>
<wgt id='1310'> +6.1158442e+01 </wgt>
<wgt id='1311'> +6.1161095e+01 </wgt>
<wgt id='1312'> +6.1344012e+01 </wgt>
<wgt id='1313'> +6.1163655e+01 </wgt>
<wgt id='1314'> +6.1215561e+01 </wgt>
<wgt id='1315'> +6.1127478e+01 </wgt>
<wgt id='1316'> +6.1104494e+01 </wgt>
<wgt id='1317'> +6.1188208e+01 </wgt>
<wgt id='1318'> +6.1233748e+01 </wgt>
<wgt id='1319'> +6.1249210e+01 </wgt>
<wgt id='1320'> +6.1333654e+01 </wgt>
<wgt id='1321'> +6.1213085e+01 </wgt>
<wgt id='1322'> +6.1150878e+01 </wgt>
<wgt id='1323'> +6.1190143e+01 </wgt>
<wgt id='1324'> +6.1235908e+01 </wgt>
<wgt id='1325'> +6.1220984e+01 </wgt>
<wgt id='1326'> +6.1161514e+01 </wgt>
<wgt id='1327'> +6.1098868e+01 </wgt>
<wgt id='1328'> +6.1195737e+01 </wgt>
<wgt id='1329'> +6.1197757e+01 </wgt>
<wgt id='1330'> +6.1274179e+01 </wgt>
<wgt id='1331'> +6.1176050e+01 </wgt>
<wgt id='1332'> +6.1189174e+01 </wgt>
<wgt id='1333'> +6.1238612e+01 </wgt>
<wgt id='1334'> +6.1231549e+01 </wgt>
<wgt id='1335'> +6.1235888e+01 </wgt>
<wgt id='1336'> +6.1159786e+01 </wgt>
<wgt id='1337'> +6.1225557e+01 </wgt>
<wgt id='1338'> +6.1203195e+01 </wgt>
<wgt id='1339'> +6.1234555e+01 </wgt>
<wgt id='1340'> +6.1167944e+01 </wgt>
<wgt id='1341'> +6.1230929e+01 </wgt>
<wgt id='1342'> +6.1192236e+01 </wgt>
<wgt id='1343'> +6.1249981e+01 </wgt>
<wgt id='1344'> +6.1221062e+01 </wgt>
<wgt id='1345'> +6.1171816e+01 </wgt>
<wgt id='1346'> +6.1157204e+01 </wgt>
<wgt id='1347'> +6.1184692e+01 </wgt>
<wgt id='1348'> +6.1163909e+01 </wgt>
<wgt id='1349'> +6.1210601e+01 </wgt>
<wgt id='1350'> +6.1207582e+01 </wgt>
<wgt id='1351'> +6.1178252e+01 </wgt>
<wgt id='1352'> +6.1157555e+01 </wgt>
<wgt id='1353'> +5.9301879e+01 </wgt>
<wgt id='1354'> +6.3096765e+01 </wgt>
<wgt id='1355'> +5.2227648e+01 </wgt>
<wgt id='1356'> +5.3890212e+01 </wgt>
<wgt id='1357'> +5.5941346e+01 </wgt>
<wgt id='1358'> +5.7795103e+01 </wgt>
<wgt id='1359'> +6.0392425e+01 </wgt>
<wgt id='1360'> +6.2054078e+01 </wgt>
<wgt id='1361'> +6.4810389e+01 </wgt>
<wgt id='1362'> +6.6581148e+01 </wgt>
<wgt id='1363'> +6.0306809e+01 </wgt>
<wgt id='1364'> +6.0315308e+01 </wgt>
<wgt id='1365'> +6.0289874e+01 </wgt>
<wgt id='1366'> +6.0374176e+01 </wgt>
<wgt id='1367'> +6.0325855e+01 </wgt>
<wgt id='1368'> +6.0403518e+01 </wgt>
<wgt id='1369'> +6.0288230e+01 </wgt>
<wgt id='1370'> +6.0455521e+01 </wgt>
<wgt id='1371'> +6.0187475e+01 </wgt>
<wgt id='1372'> +6.0488443e+01 </wgt>
<wgt id='1373'> +6.0022718e+01 </wgt>
<wgt id='1374'> +6.0250516e+01 </wgt>
<wgt id='1375'> +6.0297157e+01 </wgt>
<wgt id='1376'> +6.0302942e+01 </wgt>
<wgt id='1377'> +6.0667612e+01 </wgt>
<wgt id='1378'> +5.9926273e+01 </wgt>
<wgt id='1379'> +6.0413283e+01 </wgt>
<wgt id='1380'> +6.0255102e+01 </wgt>
<wgt id='1381'> +6.0399203e+01 </wgt>
<wgt id='1382'> +6.0124224e+01 </wgt>
<wgt id='1383'> +5.9852003e+01 </wgt>
<wgt id='1384'> +6.0667283e+01 </wgt>
<wgt id='1385'> +6.0447902e+01 </wgt>
<wgt id='1386'> +6.0557113e+01 </wgt>
<wgt id='1387'> +6.0288610e+01 </wgt>
<wgt id='1388'> +5.9876242e+01 </wgt>
<wgt id='1389'> +6.0217813e+01 </wgt>
<wgt id='1390'> +6.0384988e+01 </wgt>
<wgt id='1391'> +6.0531380e+01 </wgt>
<wgt id='1392'> +6.0564080e+01 </wgt>
<wgt id='1393'> +5.9288302e+01 </wgt>
<wgt id='1394'> +6.0265291e+01 </wgt>
<wgt id='1395'> +6.0181180e+01 </wgt>
<wgt id='1396'> +6.0672532e+01 </wgt>
<wgt id='1397'> +6.0378016e+01 </wgt>
<wgt id='1398'> +6.0434411e+01 </wgt>
<wgt id='1399'> +6.0372296e+01 </wgt>
<wgt id='1400'> +5.9994609e+01 </wgt>
<wgt id='1401'> +6.0340583e+01 </wgt>
<wgt id='1402'> +6.0280730e+01 </wgt>
<wgt id='1403'> +6.0321295e+01 </wgt>
<wgt id='1404'> +6.0238573e+01 </wgt>
<wgt id='1405'> +6.0378414e+01 </wgt>
<wgt id='1406'> +6.0101238e+01 </wgt>
<wgt id='1407'> +6.0287040e+01 </wgt>
<wgt id='1408'> +6.0378078e+01 </wgt>
<wgt id='1409'> +6.0331250e+01 </wgt>
<wgt id='1410'> +6.0131848e+01 </wgt>
<wgt id='1411'> +6.0285529e+01 </wgt>
<wgt id='1412'> +6.0414944e+01 </wgt>
<wgt id='1413'> +6.0258184e+01 </wgt>
<wgt id='1414'> +6.0374418e+01 </wgt>
<wgt id='1415'> +6.0368649e+01 </wgt>
<wgt id='1416'> +6.0249082e+01 </wgt>
<wgt id='1417'> +6.0188639e+01 </wgt>
<wgt id='1418'> +6.0226426e+01 </wgt>
<wgt id='1419'> +6.0375846e+01 </wgt>
<wgt id='1420'> +6.0331192e+01 </wgt>
<wgt id='1421'> +6.0274450e+01 </wgt>
<wgt id='1422'> +6.0286707e+01 </wgt>
<wgt id='1423'> +6.0307829e+01 </wgt>
<wgt id='1424'> +6.0322703e+01 </wgt>
<wgt id='1425'> +6.0232958e+01 </wgt>
<wgt id='1426'> +6.0356209e+01 </wgt>
<wgt id='1427'> +6.0287285e+01 </wgt>
<wgt id='1428'> +6.0270659e+01 </wgt>
<wgt id='1429'> +6.0341197e+01 </wgt>
<wgt id='1430'> +6.0199046e+01 </wgt>
<wgt id='1431'> +6.0363190e+01 </wgt>
<wgt id='1432'> +6.0294913e+01 </wgt>
<wgt id='1433'> +6.0189580e+01 </wgt>
<wgt id='1434'> +6.0303837e+01 </wgt>
<wgt id='1435'> +6.0232076e+01 </wgt>
<wgt id='1436'> +6.0292016e+01 </wgt>
<wgt id='1437'> +6.0412361e+01 </wgt>
<wgt id='1438'> +6.0271235e+01 </wgt>
<wgt id='1439'> +6.0341528e+01 </wgt>
<wgt id='1440'> +6.0235693e+01 </wgt>
<wgt id='1441'> +6.0353775e+01 </wgt>
<wgt id='1442'> +6.0267445e+01 </wgt>
<wgt id='1443'> +6.0351190e+01 </wgt>
<wgt id='1444'> +6.0397348e+01 </wgt>
<wgt id='1445'> +6.0315302e+01 </wgt>
<wgt id='1446'> +6.0338705e+01 </wgt>
<wgt id='1447'> +6.0300612e+01 </wgt>
<wgt id='1448'> +6.0382776e+01 </wgt>
<wgt id='1449'> +6.0304524e+01 </wgt>
<wgt id='1450'> +6.0291921e+01 </wgt>
<wgt id='1451'> +6.0325196e+01 </wgt>
<wgt id='1452'> +6.0356189e+01 </wgt>
<wgt id='1453'> +6.0330536e+01 </wgt>
<wgt id='1454'> +6.0298175e+01 </wgt>
<wgt id='1455'> +6.0314260e+01 </wgt>
<wgt id='1456'> +6.0318441e+01 </wgt>
<wgt id='1457'> +6.0278554e+01 </wgt>
<wgt id='1458'> +6.0292657e+01 </wgt>
<wgt id='1459'> +6.0322952e+01 </wgt>
<wgt id='1460'> +6.0292245e+01 </wgt>
<wgt id='1461'> +6.0306981e+01 </wgt>
<wgt id='1462'> +6.0347206e+01 </wgt>
<wgt id='1463'> +6.0331777e+01 </wgt>
<wgt id='1464'> +5.8545331e+01 </wgt>
<wgt id='1465'> +6.2206220e+01 </wgt>
<wgt id='1466'> +5.9841885e+01 </wgt>
<wgt id='1467'> +5.9981860e+01 </wgt>
<wgt id='1468'> +5.9605287e+01 </wgt>
<wgt id='1469'> +5.9830478e+01 </wgt>
<wgt id='1470'> +5.9846017e+01 </wgt>
<wgt id='1471'> +5.9929659e+01 </wgt>
<wgt id='1472'> +5.9762387e+01 </wgt>
<wgt id='1473'> +5.9887505e+01 </wgt>
<wgt id='1474'> +5.9499772e+01 </wgt>
<wgt id='1475'> +6.0153143e+01 </wgt>
<wgt id='1476'> +5.9662573e+01 </wgt>
<wgt id='1477'> +6.0076556e+01 </wgt>
<wgt id='1478'> +5.9130745e+01 </wgt>
<wgt id='1479'> +5.9371078e+01 </wgt>
<wgt id='1480'> +5.9833224e+01 </wgt>
<wgt id='1481'> +5.9865224e+01 </wgt>
<wgt id='1482'> +5.9569310e+01 </wgt>
<wgt id='1483'> +5.9903154e+01 </wgt>
<wgt id='1484'> +5.9781719e+01 </wgt>
<wgt id='1485'> +6.0047196e+01 </wgt>
<wgt id='1486'> +5.9622401e+01 </wgt>
<wgt id='1487'> +5.9459523e+01 </wgt>
<wgt id='1488'> +6.0062195e+01 </wgt>
<wgt id='1489'> +5.9413505e+01 </wgt>
<wgt id='1490'> +6.0293195e+01 </wgt>
<wgt id='1491'> +5.9482922e+01 </wgt>
<wgt id='1492'> +6.0144827e+01 </wgt>
<wgt id='1493'> +5.9776361e+01 </wgt>
<wgt id='1494'> +5.9934378e+01 </wgt>
<wgt id='1495'> +5.9333892e+01 </wgt>
<wgt id='1496'> +6.0150367e+01 </wgt>
<wgt id='1497'> +6.0003728e+01 </wgt>
<wgt id='1498'> +5.9567822e+01 </wgt>
<wgt id='1499'> +6.0197796e+01 </wgt>
<wgt id='1500'> +5.9503007e+01 </wgt>
<wgt id='1501'> +6.1031821e+01 </wgt>
<wgt id='1502'> +5.8916492e+01 </wgt>
<wgt id='1503'> +6.1081167e+01 </wgt>
<wgt id='1504'> +5.8441580e+01 </wgt>
<wgt id='1505'> +6.1171547e+01 </wgt>
<wgt id='1506'> +5.8478232e+01 </wgt>
<wgt id='1507'> +5.9756744e+01 </wgt>
<wgt id='1508'> +5.9939420e+01 </wgt>
<wgt id='1509'> +5.9778043e+01 </wgt>
<wgt id='1510'> +5.9520508e+01 </wgt>
<wgt id='1511'> +5.9976647e+01 </wgt>
<wgt id='1512'> +5.9965947e+01 </wgt>
<wgt id='1513'> +5.8734744e+01 </wgt>
<wgt id='1514'> +6.0879403e+01 </wgt>
<wgt id='1515'> +6.0086026e+01 </wgt>
<wgt id='1516'> +5.9440048e+01 </wgt>
<wgt id='1517'> +5.9968255e+01 </wgt>
<wgt id='1518'> +6.0135987e+01 </wgt>
<wgt id='1519'> +5.9048987e+01 </wgt>
<wgt id='1520'> +5.8772392e+01 </wgt>
<wgt id='1521'> +5.8762571e+01 </wgt>
<wgt id='1522'> +6.1298584e+01 </wgt>
<wgt id='1523'> +5.8153475e+01 </wgt>
<wgt id='1524'> +6.1546437e+01 </wgt>
<wgt id='1525'> +5.8651039e+01 </wgt>
<wgt id='1526'> +5.8908021e+01 </wgt>
<wgt id='1527'> +5.8740038e+01 </wgt>
<wgt id='1528'> +5.8579605e+01 </wgt>
<wgt id='1529'> +5.8790559e+01 </wgt>
<wgt id='1530'> +5.8206740e+01 </wgt>
<wgt id='1531'> +5.8857391e+01 </wgt>
<wgt id='1532'> +5.8586645e+01 </wgt>
<wgt id='1533'> +5.9397773e+01 </wgt>
<wgt id='1534'> +5.7945965e+01 </wgt>
<wgt id='1535'> +5.9357494e+01 </wgt>
<wgt id='1536'> +5.9223149e+01 </wgt>
<wgt id='1537'> +5.8286476e+01 </wgt>
<wgt id='1538'> +5.7878827e+01 </wgt>
<wgt id='1539'> +5.8854207e+01 </wgt>
<wgt id='1540'> +5.9483545e+01 </wgt>
<wgt id='1541'> +5.7457549e+01 </wgt>
<wgt id='1542'> +6.0006737e+01 </wgt>
<wgt id='1543'> +5.7112083e+01 </wgt>
<wgt id='1544'> +5.9198744e+01 </wgt>
<wgt id='1545'> +5.8024455e+01 </wgt>
<wgt id='1546'> +5.8587589e+01 </wgt>
<wgt id='1547'> +5.8580154e+01 </wgt>
<wgt id='1548'> +5.8502489e+01 </wgt>
<wgt id='1549'> +5.8802886e+01 </wgt>
<wgt id='1550'> +5.8816295e+01 </wgt>
<wgt id='1551'> +5.8525022e+01 </wgt>
<wgt id='1552'> +5.9043281e+01 </wgt>
<wgt id='1553'> +5.8094655e+01 </wgt>
<wgt id='1554'> +5.8312700e+01 </wgt>
<wgt id='1555'> +5.8766368e+01 </wgt>
<wgt id='1556'> +5.8444233e+01 </wgt>
<wgt id='1557'> +5.8910018e+01 </wgt>
<wgt id='1558'> +5.8936679e+01 </wgt>
<wgt id='1559'> +5.8009556e+01 </wgt>
<wgt id='1560'> +5.8213620e+01 </wgt>
<wgt id='1561'> +5.9118782e+01 </wgt>
<wgt id='1562'> +5.8762575e+01 </wgt>
<wgt id='1563'> +5.8302201e+01 </wgt>
<wgt id='1564'> +5.7867328e+01 </wgt>
<wgt id='1565'> +5.8967020e+01 </wgt>
<wgt id='1566'> +5.9085231e+01 </wgt>
<wgt id='1567'> +5.8248025e+01 </wgt>
<wgt id='1568'> +5.8705483e+01 </wgt>
<wgt id='1569'> +5.8532457e+01 </wgt>
<wgt id='1570'> +5.8521315e+01 </wgt>
<wgt id='1571'> +5.8331627e+01 </wgt>
<wgt id='1572'> +5.8366062e+01 </wgt>
<wgt id='1573'> +5.8607478e+01 </wgt>
<wgt id='1574'> +5.8364493e+01 </wgt>
<wgt id='1575'> +5.8673203e+01 </wgt>
<wgt id='1576'> +5.8609260e+01 </wgt>
<wgt id='1577'> +5.8808330e+01 </wgt>
<wgt id='1578'> +5.8421581e+01 </wgt>
<wgt id='1579'> +5.8399263e+01 </wgt>
<wgt id='1580'> +5.7903041e+01 </wgt>
<wgt id='1581'> +5.9678299e+01 </wgt>
<wgt id='1582'> +5.7008081e+01 </wgt>
<wgt id='1583'> +6.0217542e+01 </wgt>
<wgt id='1584'> +5.1751049e+01 </wgt>
<wgt id='1585'> +5.6307730e+01 </wgt>
<wgt id='1586'> +5.6194059e+01 </wgt>
<wgt id='1587'> +5.6431190e+01 </wgt>
<wgt id='1588'> +5.6096460e+01 </wgt>
<wgt id='1589'> +5.6448477e+01 </wgt>
<wgt id='1590'> +5.6253324e+01 </wgt>
<wgt id='1591'> +5.6360890e+01 </wgt>
<wgt id='1592'> +5.6510546e+01 </wgt>
<wgt id='1593'> +5.6080146e+01 </wgt>
<wgt id='1594'> +5.6027861e+01 </wgt>
<wgt id='1595'> +5.6578948e+01 </wgt>
<wgt id='1596'> +5.6229994e+01 </wgt>
<wgt id='1597'> +5.6477402e+01 </wgt>
<wgt id='1598'> +5.6160231e+01 </wgt>
<wgt id='1599'> +5.6569066e+01 </wgt>
<wgt id='1600'> +5.6342676e+01 </wgt>
<wgt id='1601'> +5.6287900e+01 </wgt>
<wgt id='1602'> +5.6730898e+01 </wgt>
<wgt id='1603'> +5.5811901e+01 </wgt>
<wgt id='1604'> +5.6164898e+01 </wgt>
<wgt id='1605'> +5.6430684e+01 </wgt>
<wgt id='1606'> +5.6617221e+01 </wgt>
<wgt id='1607'> +5.5906794e+01 </wgt>
<wgt id='1608'> +5.7011625e+01 </wgt>
<wgt id='1609'> +5.5834382e+01 </wgt>
<wgt id='1610'> +5.6312346e+01 </wgt>
<wgt id='1611'> +5.6267574e+01 </wgt>
<wgt id='1612'> +5.6431767e+01 </wgt>
<wgt id='1613'> +5.6260461e+01 </wgt>
<wgt id='1614'> +5.6617292e+01 </wgt>
<wgt id='1615'> +5.5942580e+01 </wgt>
<wgt id='1616'> +5.6854156e+01 </wgt>
<wgt id='1617'> +5.5661634e+01 </wgt>
<wgt id='1618'> +5.6053910e+01 </wgt>
<wgt id='1619'> +5.6537496e+01 </wgt>
<wgt id='1620'> +5.6229918e+01 </wgt>
<wgt id='1621'> +5.6235836e+01 </wgt>
<wgt id='1622'> +5.6145678e+01 </wgt>
<wgt id='1623'> +5.6461956e+01 </wgt>
<wgt id='1624'> +5.6297725e+01 </wgt>
<wgt id='1625'> +5.6292480e+01 </wgt>
<wgt id='1626'> +5.5568880e+01 </wgt>
<wgt id='1627'> +5.6944778e+01 </wgt>
<wgt id='1628'> +5.6565341e+01 </wgt>
<wgt id='1629'> +5.5948480e+01 </wgt>
<wgt id='1630'> +5.6042161e+01 </wgt>
<wgt id='1631'> +5.6949172e+01 </wgt>
<wgt id='1632'> +5.6392227e+01 </wgt>
<wgt id='1633'> +5.5943887e+01 </wgt>
<wgt id='1634'> +5.6205674e+01 </wgt>
<wgt id='1635'> +5.6458821e+01 </wgt>
<wgt id='1636'> +5.9184528e+01 </wgt>
<wgt id='1637'> +5.9056603e+01 </wgt>
<wgt id='1638'> +5.9349913e+01 </wgt>
<wgt id='1639'> +5.9218145e+01 </wgt>
<wgt id='1640'> +5.9150540e+01 </wgt>
<wgt id='1641'> +5.8882654e+01 </wgt>
<wgt id='1642'> +5.9307026e+01 </wgt>
<wgt id='1643'> +5.9352106e+01 </wgt>
<wgt id='1644'> +5.9014541e+01 </wgt>
<wgt id='1645'> +5.9011762e+01 </wgt>
<wgt id='1646'> +5.9351338e+01 </wgt>
<wgt id='1647'> +5.9597707e+01 </wgt>
<wgt id='1648'> +5.9006644e+01 </wgt>
<wgt id='1649'> +5.9158308e+01 </wgt>
<wgt id='1650'> +5.9215902e+01 </wgt>
<wgt id='1651'> +5.9029426e+01 </wgt>
<wgt id='1652'> +5.9353271e+01 </wgt>
<wgt id='1653'> +5.9646315e+01 </wgt>
<wgt id='1654'> +5.8922849e+01 </wgt>
<wgt id='1655'> +5.9392858e+01 </wgt>
<wgt id='1656'> +5.8900029e+01 </wgt>
<wgt id='1657'> +5.8987644e+01 </wgt>
<wgt id='1658'> +5.9323138e+01 </wgt>
<wgt id='1659'> +5.8581911e+01 </wgt>
<wgt id='1660'> +5.9770713e+01 </wgt>
<wgt id='1661'> +5.8906880e+01 </wgt>
<wgt id='1662'> +5.9862023e+01 </wgt>
<wgt id='1663'> +5.9176735e+01 </wgt>
<wgt id='1664'> +5.9226737e+01 </wgt>
<wgt id='1665'> +5.8910267e+01 </wgt>
<wgt id='1666'> +5.9930828e+01 </wgt>
<wgt id='1667'> +5.9425765e+01 </wgt>
<wgt id='1668'> +5.8598002e+01 </wgt>
<wgt id='1669'> +5.9072201e+01 </wgt>
<wgt id='1670'> +5.9270376e+01 </wgt>
<wgt id='1671'> +5.9351179e+01 </wgt>
<wgt id='1672'> +5.9004330e+01 </wgt>
<wgt id='1673'> +5.9213586e+01 </wgt>
<wgt id='1674'> +5.9144528e+01 </wgt>
<wgt id='1675'> +5.9192949e+01 </wgt>
<wgt id='1676'> +5.9149431e+01 </wgt>
<wgt id='1677'> +5.9717261e+01 </wgt>
<wgt id='1678'> +5.7976826e+01 </wgt>
<wgt id='1679'> +5.9316621e+01 </wgt>
<wgt id='1680'> +5.8716176e+01 </wgt>
<wgt id='1681'> +5.8802498e+01 </wgt>
<wgt id='1682'> +5.9359903e+01 </wgt>
<wgt id='1683'> +5.9742136e+01 </wgt>
<wgt id='1684'> +5.8920300e+01 </wgt>
<wgt id='1685'> +5.9133212e+01 </wgt>
<wgt id='1686'> +5.9060471e+01 </wgt>
<wgt id='1687'> +5.9898778e+01 </wgt>
<wgt id='1688'> +6.1518388e+01 </wgt>
<wgt id='1689'> +6.1508891e+01 </wgt>
<wgt id='1690'> +6.1449273e+01 </wgt>
<wgt id='1691'> +6.1632972e+01 </wgt>
<wgt id='1692'> +6.1519205e+01 </wgt>
<wgt id='1693'> +6.1570701e+01 </wgt>
<wgt id='1694'> +6.1428390e+01 </wgt>
<wgt id='1695'> +6.1633205e+01 </wgt>
<wgt id='1696'> +6.1178417e+01 </wgt>
<wgt id='1697'> +6.1398064e+01 </wgt>
<wgt id='1698'> +6.1550495e+01 </wgt>
<wgt id='1699'> +6.1361953e+01 </wgt>
<wgt id='1700'> +6.1634005e+01 </wgt>
<wgt id='1701'> +6.1562762e+01 </wgt>
<wgt id='1702'> +6.1407642e+01 </wgt>
<wgt id='1703'> +6.1560978e+01 </wgt>
<wgt id='1704'> +6.1491517e+01 </wgt>
<wgt id='1705'> +6.1395936e+01 </wgt>
<wgt id='1706'> +6.1322575e+01 </wgt>
<wgt id='1707'> +6.1524993e+01 </wgt>
<wgt id='1708'> +6.1250254e+01 </wgt>
<wgt id='1709'> +6.1366632e+01 </wgt>
<wgt id='1710'> +6.1499345e+01 </wgt>
<wgt id='1711'> +6.1504988e+01 </wgt>
<wgt id='1712'> +6.1655422e+01 </wgt>
<wgt id='1713'> +6.1536972e+01 </wgt>
<wgt id='1714'> +6.1303896e+01 </wgt>
<wgt id='1715'> +6.1364699e+01 </wgt>
<wgt id='1716'> +6.1656115e+01 </wgt>
<wgt id='1717'> +6.1151645e+01 </wgt>
<wgt id='1718'> +5.7601526e+01 </wgt>
<wgt id='1719'> +5.7392503e+01 </wgt>
<wgt id='1720'> +5.7204331e+01 </wgt>
<wgt id='1721'> +5.8075255e+01 </wgt>
<wgt id='1722'> +5.7423820e+01 </wgt>
<wgt id='1723'> +5.7753414e+01 </wgt>
<wgt id='1724'> +5.7131649e+01 </wgt>
<wgt id='1725'> +5.7831710e+01 </wgt>
<wgt id='1726'> +5.7588371e+01 </wgt>
<wgt id='1727'> +5.7470441e+01 </wgt>
<wgt id='1728'> +5.7374844e+01 </wgt>
<wgt id='1729'> +5.7104789e+01 </wgt>
<wgt id='1730'> +5.7452250e+01 </wgt>
<wgt id='1731'> +5.8088060e+01 </wgt>
<wgt id='1732'> +5.7361587e+01 </wgt>
<wgt id='1733'> +5.7515828e+01 </wgt>
<wgt id='1734'> +5.7201551e+01 </wgt>
<wgt id='1735'> +5.7591329e+01 </wgt>
<wgt id='1736'> +5.8305390e+01 </wgt>
<wgt id='1737'> +5.7318488e+01 </wgt>
<wgt id='1738'> +5.7629998e+01 </wgt>
<wgt id='1739'> +5.7731830e+01 </wgt>
<wgt id='1740'> +5.7234457e+01 </wgt>
<wgt id='1741'> +5.8108778e+01 </wgt>
<wgt id='1742'> +5.7532273e+01 </wgt>
<wgt id='1743'> +5.7956157e+01 </wgt>
<wgt id='1744'> +5.7686672e+01 </wgt>
<wgt id='1745'> +5.7447150e+01 </wgt>
<wgt id='1746'> +5.7909915e+01 </wgt>
<wgt id='1747'> +5.7626002e+01 </wgt>
<wgt id='1748'> +5.7597562e+01 </wgt>
<wgt id='1749'> +5.7612815e+01 </wgt>
<wgt id='1750'> +5.7376617e+01 </wgt>
<wgt id='1751'> +5.7579494e+01 </wgt>
<wgt id='1752'> +5.7838579e+01 </wgt>
<wgt id='1753'> +5.7861172e+01 </wgt>
<wgt id='1754'> +5.7405354e+01 </wgt>
<wgt id='1755'> +5.7528028e+01 </wgt>
<wgt id='1756'> +5.7591505e+01 </wgt>
<wgt id='1757'> +5.7753840e+01 </wgt>
<wgt id='1758'> +5.7672927e+01 </wgt>
<wgt id='1759'> +5.7736385e+01 </wgt>
<wgt id='1760'> +5.7590977e+01 </wgt>
<wgt id='1761'> +5.7488810e+01 </wgt>
<wgt id='1762'> +5.7699785e+01 </wgt>
<wgt id='1763'> +5.7754210e+01 </wgt>
<wgt id='1764'> +5.7709148e+01 </wgt>
<wgt id='1765'> +5.7560712e+01 </wgt>
<wgt id='1766'> +5.7501704e+01 </wgt>
<wgt id='1767'> +5.7671230e+01 </wgt>
<wgt id='1768'> +5.7612071e+01 </wgt>
<wgt id='1769'> +5.7540312e+01 </wgt>
<wgt id='1770'> +5.7672531e+01 </wgt>
<wgt id='1771'> +5.7455668e+01 </wgt>
<wgt id='1772'> +5.7559838e+01 </wgt>
<wgt id='1773'> +5.7648661e+01 </wgt>
<wgt id='1774'> +5.7582844e+01 </wgt>
<wgt id='1775'> +5.7514277e+01 </wgt>
<wgt id='1776'> +5.7632994e+01 </wgt>
<wgt id='1777'> +5.7588094e+01 </wgt>
<wgt id='1778'> +5.7610803e+01 </wgt>
<wgt id='1779'> +5.7655133e+01 </wgt>
<wgt id='1780'> +5.7560806e+01 </wgt>
<wgt id='1781'> +5.7566509e+01 </wgt>
<wgt id='1782'> +5.7578681e+01 </wgt>
<wgt id='1783'> +5.7597425e+01 </wgt>
<wgt id='1784'> +5.7524698e+01 </wgt>
<wgt id='1785'> +5.7527031e+01 </wgt>
<wgt id='1786'> +5.7626992e+01 </wgt>
<wgt id='1787'> +5.7610373e+01 </wgt>
<wgt id='1788'> +5.7670960e+01 </wgt>
<wgt id='1789'> +5.7594000e+01 </wgt>
<wgt id='1790'> +5.7523732e+01 </wgt>
<wgt id='1791'> +5.7564771e+01 </wgt>
<wgt id='1792'> +5.7628514e+01 </wgt>
<wgt id='1793'> +5.7576990e+01 </wgt>
<wgt id='1794'> +5.7577771e+01 </wgt>
<wgt id='1795'> +5.7581317e+01 </wgt>
<wgt id='1796'> +5.7609107e+01 </wgt>
<wgt id='1797'> +5.7597420e+01 </wgt>
<wgt id='1798'> +5.7593459e+01 </wgt>
<wgt id='1799'> +5.7600010e+01 </wgt>
<wgt id='1800'> +5.7606698e+01 </wgt>
<wgt id='1801'> +5.7610344e+01 </wgt>
<wgt id='1802'> +5.7616559e+01 </wgt>
<wgt id='1803'> +5.7602951e+01 </wgt>
<wgt id='1804'> +5.7621138e+01 </wgt>
<wgt id='1805'> +5.7611433e+01 </wgt>
<wgt id='1806'> +5.7593994e+01 </wgt>
<wgt id='1807'> +5.7572445e+01 </wgt>
<wgt id='1808'> +5.7608254e+01 </wgt>
<wgt id='1809'> +5.7567789e+01 </wgt>
<wgt id='1810'> +5.7599328e+01 </wgt>
<wgt id='1811'> +5.7567186e+01 </wgt>
<wgt id='1812'> +5.7600589e+01 </wgt>
<wgt id='1813'> +5.7614105e+01 </wgt>
<wgt id='1814'> +5.7603614e+01 </wgt>
<wgt id='1815'> +5.7605083e+01 </wgt>
<wgt id='1816'> +5.7587996e+01 </wgt>
<wgt id='1817'> +5.7607590e+01 </wgt>
<wgt id='1818'> +5.7606820e+01 </wgt>
<wgt id='1819'> +5.6197579e+01 </wgt>
<wgt id='1820'> +5.8875689e+01 </wgt>
<wgt id='1821'> +5.9428156e+01 </wgt>
<wgt id='1822'> +5.9484816e+01 </wgt>
<wgt id='1823'> +5.9247914e+01 </wgt>
<wgt id='1824'> +5.9554769e+01 </wgt>
<wgt id='1825'> +5.9750650e+01 </wgt>
<wgt id='1826'> +5.9791997e+01 </wgt>
<wgt id='1827'> +5.9669782e+01 </wgt>
<wgt id='1828'> +5.9541279e+01 </wgt>
<wgt id='1829'> +5.9437145e+01 </wgt>
<wgt id='1830'> +5.9493970e+01 </wgt>
<wgt id='1831'> +5.9387708e+01 </wgt>
<wgt id='1832'> +5.9932474e+01 </wgt>
<wgt id='1833'> +5.9459336e+01 </wgt>
<wgt id='1834'> +5.9651558e+01 </wgt>
<wgt id='1835'> +5.9196093e+01 </wgt>
<wgt id='1836'> +5.9440116e+01 </wgt>
<wgt id='1837'> +5.9390416e+01 </wgt>
<wgt id='1838'> +5.9365309e+01 </wgt>
<wgt id='1839'> +5.9725557e+01 </wgt>
<wgt id='1840'> +5.8767279e+01 </wgt>
<wgt id='1841'> +5.9476432e+01 </wgt>
<wgt id='1842'> +5.9652142e+01 </wgt>
<wgt id='1843'> +5.8980050e+01 </wgt>
<wgt id='1844'> +5.9781598e+01 </wgt>
<wgt id='1845'> +5.9869766e+01 </wgt>
<wgt id='1846'> +5.9337681e+01 </wgt>
<wgt id='1847'> +5.9342706e+01 </wgt>
<wgt id='1848'> +5.9543837e+01 </wgt>
<wgt id='1849'> +5.9360674e+01 </wgt>
<wgt id='1850'> +5.9321327e+01 </wgt>
<wgt id='1851'> +5.9358450e+01 </wgt>
<wgt id='1852'> +5.9708757e+01 </wgt>
<wgt id='1853'> +5.9522306e+01 </wgt>
<wgt id='1854'> +5.9589263e+01 </wgt>
<wgt id='1855'> +5.9602544e+01 </wgt>
<wgt id='1856'> +5.9192229e+01 </wgt>
<wgt id='1857'> +5.9851053e+01 </wgt>
<wgt id='1858'> +5.9410674e+01 </wgt>
<wgt id='1859'> +5.9403262e+01 </wgt>
<wgt id='1860'> +5.9410043e+01 </wgt>
<wgt id='1861'> +5.9195615e+01 </wgt>
<wgt id='1862'> +5.9352386e+01 </wgt>
<wgt id='1863'> +5.9530536e+01 </wgt>
<wgt id='1864'> +5.9302156e+01 </wgt>
<wgt id='1865'> +5.9505577e+01 </wgt>
<wgt id='1866'> +5.9336658e+01 </wgt>
<wgt id='1867'> +5.9274849e+01 </wgt>
<wgt id='1868'> +5.9227676e+01 </wgt>
<wgt id='1869'> +5.9445109e+01 </wgt>
<wgt id='1870'> +5.9308582e+01 </wgt>
<wgt id='1871'> +5.9390879e+01 </wgt>
<wgt id='1872'> +5.9437306e+01 </wgt>
<wgt id='1873'> +5.9512496e+01 </wgt>
<wgt id='1874'> +5.9328237e+01 </wgt>
<wgt id='1875'> +5.9359231e+01 </wgt>
<wgt id='1876'> +5.9383960e+01 </wgt>
<wgt id='1877'> +5.9493331e+01 </wgt>
<wgt id='1878'> +5.9395248e+01 </wgt>
<wgt id='1879'> +5.9322260e+01 </wgt>
<wgt id='1880'> +5.9433083e+01 </wgt>
<wgt id='1881'> +5.9404307e+01 </wgt>
<wgt id='1882'> +5.9424173e+01 </wgt>
<wgt id='1883'> +5.9510674e+01 </wgt>
<wgt id='1884'> +5.9374487e+01 </wgt>
<wgt id='1885'> +5.9403630e+01 </wgt>
<wgt id='1886'> +5.9461860e+01 </wgt>
<wgt id='1887'> +5.9451687e+01 </wgt>
<wgt id='1888'> +5.9451977e+01 </wgt>
<wgt id='1889'> +5.9356252e+01 </wgt>
<wgt id='1890'> +5.9479384e+01 </wgt>
<wgt id='1891'> +5.9470287e+01 </wgt>
<wgt id='1892'> +5.9434921e+01 </wgt>
<wgt id='1893'> +5.9485850e+01 </wgt>
<wgt id='1894'> +5.9398604e+01 </wgt>
<wgt id='1895'> +5.9427627e+01 </wgt>
<wgt id='1896'> +5.9409012e+01 </wgt>
<wgt id='1897'> +5.9432437e+01 </wgt>
<wgt id='1898'> +5.9459135e+01 </wgt>
<wgt id='1899'> +5.9440030e+01 </wgt>
<wgt id='1900'> +5.9453177e+01 </wgt>
<wgt id='1901'> +5.9437079e+01 </wgt>
<wgt id='1902'> +5.9429563e+01 </wgt>
<wgt id='1903'> +5.9423954e+01 </wgt>
<wgt id='1904'> +5.9401267e+01 </wgt>
<wgt id='1905'> +5.9405133e+01 </wgt>
<wgt id='1906'> +5.9404988e+01 </wgt>
<wgt id='1907'> +5.9408276e+01 </wgt>
<wgt id='1908'> +5.9407442e+01 </wgt>
<wgt id='1909'> +5.9420787e+01 </wgt>
<wgt id='1910'> +5.9413825e+01 </wgt>
<wgt id='1911'> +5.9437563e+01 </wgt>
<wgt id='1912'> +5.9424049e+01 </wgt>
<wgt id='1913'> +5.9432798e+01 </wgt>
<wgt id='1914'> +5.9413395e+01 </wgt>
<wgt id='1915'> +5.9400420e+01 </wgt>
<wgt id='1916'> +5.9445509e+01 </wgt>
<wgt id='1917'> +5.9427626e+01 </wgt>
<wgt id='1918'> +5.9419429e+01 </wgt>
<wgt id='1919'> +5.9418057e+01 </wgt>
<wgt id='1920'> +5.9417680e+01 </wgt>
<wgt id='1921'> +5.9429135e+01 </wgt>
<wgt id='1922'> +5.8010507e+01 </wgt>
<wgt id='1923'> +6.0776130e+01 </wgt>
<wgt id='1924'> +5.7599856e+01 </wgt>
<wgt id='1925'> +5.7214863e+01 </wgt>
<wgt id='1926'> +5.6657644e+01 </wgt>
<wgt id='1927'> +5.7553467e+01 </wgt>
<wgt id='1928'> +5.8292250e+01 </wgt>
<wgt id='1929'> +5.7536592e+01 </wgt>
<wgt id='1930'> +5.7597305e+01 </wgt>
<wgt id='1931'> +5.7582751e+01 </wgt>
<wgt id='1932'> +5.7772892e+01 </wgt>
<wgt id='1933'> +5.7721148e+01 </wgt>
<wgt id='1934'> +5.7693765e+01 </wgt>
<wgt id='1935'> +5.7323668e+01 </wgt>
<wgt id='1936'> +5.8183337e+01 </wgt>
<wgt id='1937'> +5.7594280e+01 </wgt>
<wgt id='1938'> +5.7315396e+01 </wgt>
<wgt id='1939'> +5.7743938e+01 </wgt>
<wgt id='1940'> +5.7607046e+01 </wgt>
<wgt id='1941'> +5.7437512e+01 </wgt>
<wgt id='1942'> +5.7580290e+01 </wgt>
<wgt id='1943'> +5.7798911e+01 </wgt>
<wgt id='1944'> +5.8181896e+01 </wgt>
<wgt id='1945'> +5.7390143e+01 </wgt>
<wgt id='1946'> +5.7433520e+01 </wgt>
<wgt id='1947'> +5.7647691e+01 </wgt>
<wgt id='1948'> +5.7344688e+01 </wgt>
<wgt id='1949'> +5.7640549e+01 </wgt>
<wgt id='1950'> +5.7486114e+01 </wgt>
<wgt id='1951'> +5.7575304e+01 </wgt>
<wgt id='1952'> +5.7577386e+01 </wgt>
<wgt id='1953'> +5.7539015e+01 </wgt>
<wgt id='1954'> +5.7722245e+01 </wgt>
<wgt id='1955'> +5.6197579e+01 </wgt>
<wgt id='1956'> +5.8875689e+01 </wgt>
<wgt id='1957'> +5.9421567e+01 </wgt>
<wgt id='1958'> +5.9448844e+01 </wgt>
<wgt id='1959'> +5.9739462e+01 </wgt>
<wgt id='1960'> +5.9377469e+01 </wgt>
<wgt id='1961'> +5.8672525e+01 </wgt>
<wgt id='1962'> +5.8942969e+01 </wgt>
<wgt id='1963'> +5.9431033e+01 </wgt>
<wgt id='1964'> +5.9349675e+01 </wgt>
<wgt id='1965'> +5.9281057e+01 </wgt>
<wgt id='1966'> +5.8982439e+01 </wgt>
<wgt id='1967'> +5.9280587e+01 </wgt>
<wgt id='1968'> +5.9884697e+01 </wgt>
<wgt id='1969'> +5.9507191e+01 </wgt>
<wgt id='1970'> +5.9401228e+01 </wgt>
<wgt id='1971'> +5.9381397e+01 </wgt>
<wgt id='1972'> +5.9343663e+01 </wgt>
<wgt id='1973'> +5.9321593e+01 </wgt>
<wgt id='1974'> +5.8974794e+01 </wgt>
<wgt id='1975'> +5.9419356e+01 </wgt>
<wgt id='1976'> +5.9552604e+01 </wgt>
<wgt id='1977'> +5.9112139e+01 </wgt>
<wgt id='1978'> +5.9311016e+01 </wgt>
<wgt id='1979'> +5.9539871e+01 </wgt>
<wgt id='1980'> +5.9413341e+01 </wgt>
<wgt id='1981'> +5.9492238e+01 </wgt>
<wgt id='1982'> +5.9481750e+01 </wgt>
<wgt id='1983'> +5.9348388e+01 </wgt>
<wgt id='1984'> +5.9590514e+01 </wgt>
<wgt id='1985'> +5.9652604e+01 </wgt>
<wgt id='1986'> +5.9397371e+01 </wgt>
<wgt id='1987'> +6.0177051e+01 </wgt>
<wgt id='1988'> +5.8010507e+01 </wgt>
<wgt id='1989'> +6.0776130e+01 </wgt>
<wgt id='1990'> +6.5314560e+01 </wgt>
<wgt id='1991'> +6.5410358e+01 </wgt>
<wgt id='1992'> +6.5219278e+01 </wgt>
<wgt id='1993'> +6.5180074e+01 </wgt>
<wgt id='1994'> +6.5449019e+01 </wgt>
<wgt id='1995'> +6.5239471e+01 </wgt>
<wgt id='1996'> +6.5389084e+01 </wgt>
<wgt id='1997'> +6.5235612e+01 </wgt>
<wgt id='1998'> +6.5387605e+01 </wgt>
<wgt id='1999'> +6.5795277e+01 </wgt>
<wgt id='2000'> +6.4834123e+01 </wgt>
<wgt id='2001'> +6.5477331e+01 </wgt>
<wgt id='2002'> +6.5156896e+01 </wgt>
<wgt id='2003'> +6.5178448e+01 </wgt>
<wgt id='2004'> +6.5448318e+01 </wgt>
<wgt id='2005'> +6.5079197e+01 </wgt>
<wgt id='2006'> +6.5503979e+01 </wgt>
<wgt id='2007'> +6.5103963e+01 </wgt>
<wgt id='2008'> +6.5519465e+01 </wgt>
<wgt id='2009'> +6.5099975e+01 </wgt>
<wgt id='2010'> +6.5524167e+01 </wgt>
<wgt id='2011'> +6.5520477e+01 </wgt>
<wgt id='2012'> +6.5110491e+01 </wgt>
<wgt id='2013'> +6.4654790e+01 </wgt>
<wgt id='2014'> +6.5844954e+01 </wgt>
<wgt id='2015'> +6.5439086e+01 </wgt>
<wgt id='2016'> +6.5140053e+01 </wgt>
<wgt id='2017'> +6.4765009e+01 </wgt>
<wgt id='2018'> +6.5707206e+01 </wgt>
<wgt id='2019'> +6.5314560e+01 </wgt>
<wgt id='2020'> +6.5829488e+01 </wgt>
<wgt id='2021'> +6.4664834e+01 </wgt>
<wgt id='2022'> +6.5891751e+01 </wgt>
<wgt id='2023'> +6.4878282e+01 </wgt>
<wgt id='2024'> +6.5683102e+01 </wgt>
<wgt id='2025'> +6.5033779e+01 </wgt>
<wgt id='2026'> +6.5248750e+01 </wgt>
<wgt id='2027'> +6.5418800e+01 </wgt>
<wgt id='2028'> +6.4873841e+01 </wgt>
<wgt id='2029'> +6.5785772e+01 </wgt>
<wgt id='2030'> +6.5288807e+01 </wgt>
<wgt id='2031'> +6.5800591e+01 </wgt>
<wgt id='2032'> +6.8810219e+01 </wgt>
<wgt id='2033'> +6.6574605e+01 </wgt>
<wgt id='2034'> +6.6670194e+01 </wgt>
<wgt id='2035'> +6.6499361e+01 </wgt>
<wgt id='2036'> +6.6468638e+01 </wgt>
<wgt id='2037'> +6.6700722e+01 </wgt>
<wgt id='2038'> +6.6437220e+01 </wgt>
<wgt id='2039'> +6.6731476e+01 </wgt>
<wgt id='2040'> +6.6287575e+01 </wgt>
<wgt id='2041'> +6.6874492e+01 </wgt>
<wgt id='2042'> +6.6957063e+01 </wgt>
<wgt id='2043'> +6.6211655e+01 </wgt>
<wgt id='2044'> +6.6803503e+01 </wgt>
<wgt id='2045'> +6.6365692e+01 </wgt>
<wgt id='2046'> +6.6377779e+01 </wgt>
<wgt id='2047'> +6.6789402e+01 </wgt>
<wgt id='2048'> +6.6439185e+01 </wgt>
<wgt id='2049'> +6.6693110e+01 </wgt>
<wgt id='2050'> +6.6759611e+01 </wgt>
<wgt id='2051'> +6.6405748e+01 </wgt>
<wgt id='2052'> +6.6541828e+01 </wgt>
<wgt id='2053'> +6.6630002e+01 </wgt>
<wgt id='2054'> +6.6090687e+01 </wgt>
<wgt id='2055'> +6.7075555e+01 </wgt>
<wgt id='2056'> +6.6553470e+01 </wgt>
<wgt id='2057'> +6.6564282e+01 </wgt>
<wgt id='2058'> +6.6284845e+01 </wgt>
<wgt id='2059'> +6.6720580e+01 </wgt>
<wgt id='2060'> +6.6103142e+01 </wgt>
<wgt id='2061'> +6.6865349e+01 </wgt>
<wgt id='2062'> +6.6550281e+01 </wgt>
<wgt id='2063'> +6.7285925e+01 </wgt>
<wgt id='2064'> +6.5506143e+01 </wgt>
<wgt id='2065'> +6.7413076e+01 </wgt>
<wgt id='2066'> +6.5903521e+01 </wgt>
<wgt id='2067'> +6.6643213e+01 </wgt>
<wgt id='2068'> +6.5669270e+01 </wgt>
<wgt id='2069'> +6.6476693e+01 </wgt>
<wgt id='2070'> +6.6802645e+01 </wgt>
<wgt id='2071'> +6.5269344e+01 </wgt>
<wgt id='2072'> +6.6845289e+01 </wgt>
<wgt id='2073'> +6.5396039e+01 </wgt>
<wgt id='2074'> +6.7824332e+01 </wgt>
<wgt id='2075'> +6.6673517e+01 </wgt>
<wgt id='2076'> +5.7827395e+01 </wgt>
<wgt id='2077'> +5.7812348e+01 </wgt>
<wgt id='2078'> +5.7797514e+01 </wgt>
<wgt id='2079'> +5.7782473e+01 </wgt>
<wgt id='2080'> +5.7767432e+01 </wgt>
<wgt id='2081'> +5.7752374e+01 </wgt>
<wgt id='2082'> +5.7737395e+01 </wgt>
<wgt id='2083'> +5.7722553e+01 </wgt>
<wgt id='2084'> +5.7707519e+01 </wgt>
<wgt id='2085'> +5.7692559e+01 </wgt>
<wgt id='2086'> +5.7677516e+01 </wgt>
<wgt id='2087'> +5.7662619e+01 </wgt>
<wgt id='2088'> +5.7647658e+01 </wgt>
<wgt id='2089'> +5.7632608e+01 </wgt>
<wgt id='2090'> +5.7617551e+01 </wgt>
<wgt id='2091'> +5.7602512e+01 </wgt>
<wgt id='2092'> +5.7587773e+01 </wgt>
<wgt id='2093'> +5.7572669e+01 </wgt>
<wgt id='2094'> +5.7557670e+01 </wgt>
<wgt id='2095'> +5.7542683e+01 </wgt>
<wgt id='2096'> +5.7527813e+01 </wgt>
<wgt id='2097'> +5.7512775e+01 </wgt>
<wgt id='2098'> +5.7497820e+01 </wgt>
<wgt id='2099'> +5.7482753e+01 </wgt>
<wgt id='2100'> +5.7467760e+01 </wgt>
<wgt id='2101'> +5.7452905e+01 </wgt>
<wgt id='2102'> +5.7437928e+01 </wgt>
<wgt id='2103'> +5.7422879e+01 </wgt>
<wgt id='2104'> +5.7407852e+01 </wgt>
<wgt id='2105'> +5.7392879e+01 </wgt>
<wgt id='2106'> +5.7378025e+01 </wgt>
<wgt id='2107'> +5.8945666e+01 </wgt>
<wgt id='2108'> +5.8991326e+01 </wgt>
<wgt id='2109'> +5.8764656e+01 </wgt>
<wgt id='2110'> +5.9071400e+01 </wgt>
<wgt id='2111'> +5.9263055e+01 </wgt>
<wgt id='2112'> +5.9304320e+01 </wgt>
<wgt id='2113'> +5.9193188e+01 </wgt>
<wgt id='2114'> +5.9066888e+01 </wgt>
<wgt id='2115'> +5.8955839e+01 </wgt>
<wgt id='2116'> +5.9010674e+01 </wgt>
<wgt id='2117'> +5.8902627e+01 </wgt>
<wgt id='2118'> +5.9456328e+01 </wgt>
<wgt id='2119'> +5.8981924e+01 </wgt>
<wgt id='2120'> +5.9170841e+01 </wgt>
<wgt id='2121'> +5.8715651e+01 </wgt>
<wgt id='2122'> +5.8945237e+01 </wgt>
<wgt id='2123'> +5.8918858e+01 </wgt>
<wgt id='2124'> +5.8878964e+01 </wgt>
<wgt id='2125'> +5.9238844e+01 </wgt>
<wgt id='2126'> +5.8296620e+01 </wgt>
<wgt id='2127'> +5.9000970e+01 </wgt>
<wgt id='2128'> +5.9164048e+01 </wgt>
<wgt id='2129'> +5.8497502e+01 </wgt>
<wgt id='2130'> +5.9300214e+01 </wgt>
<wgt id='2131'> +5.9380090e+01 </wgt>
<wgt id='2132'> +5.8848660e+01 </wgt>
<wgt id='2133'> +5.8852692e+01 </wgt>
<wgt id='2134'> +5.9069022e+01 </wgt>
<wgt id='2135'> +5.8881597e+01 </wgt>
<wgt id='2136'> +5.8834323e+01 </wgt>
<wgt id='2137'> +5.8872416e+01 </wgt>
<wgt id='2138'> +5.9231615e+01 </wgt>
<wgt id='2139'> +5.9035005e+01 </wgt>
<wgt id='2140'> +5.9100784e+01 </wgt>
<wgt id='2141'> +5.9117732e+01 </wgt>
<wgt id='2142'> +5.8709278e+01 </wgt>
<wgt id='2143'> +5.9365959e+01 </wgt>
<wgt id='2144'> +5.8927433e+01 </wgt>
<wgt id='2145'> +5.8920236e+01 </wgt>
<wgt id='2146'> +5.8924424e+01 </wgt>
<wgt id='2147'> +5.8714663e+01 </wgt>
<wgt id='2148'> +5.8869431e+01 </wgt>
<wgt id='2149'> +5.9045815e+01 </wgt>
<wgt id='2150'> +5.8825190e+01 </wgt>
<wgt id='2151'> +5.9020430e+01 </wgt>
<wgt id='2152'> +5.8854915e+01 </wgt>
<wgt id='2153'> +5.8794989e+01 </wgt>
<wgt id='2154'> +5.8743897e+01 </wgt>
<wgt id='2155'> +5.8963415e+01 </wgt>
<wgt id='2156'> +5.8826170e+01 </wgt>
<wgt id='2157'> +5.8909543e+01 </wgt>
<wgt id='2158'> +5.8954101e+01 </wgt>
<wgt id='2159'> +5.9030180e+01 </wgt>
<wgt id='2160'> +5.8847090e+01 </wgt>
<wgt id='2161'> +5.8877510e+01 </wgt>
<wgt id='2162'> +5.8903238e+01 </wgt>
<wgt id='2163'> +5.9008580e+01 </wgt>
<wgt id='2164'> +5.8913927e+01 </wgt>
<wgt id='2165'> +5.8842931e+01 </wgt>
<wgt id='2166'> +5.8951393e+01 </wgt>
<wgt id='2167'> +5.8924267e+01 </wgt>
<wgt id='2168'> +5.8942264e+01 </wgt>
<wgt id='2169'> +5.9025922e+01 </wgt>
<wgt id='2170'> +5.8890531e+01 </wgt>
<wgt id='2171'> +5.8922864e+01 </wgt>
<wgt id='2172'> +5.8978596e+01 </wgt>
<wgt id='2173'> +5.8968426e+01 </wgt>
<wgt id='2174'> +5.8967580e+01 </wgt>
<wgt id='2175'> +5.8875036e+01 </wgt>
<wgt id='2176'> +5.8995630e+01 </wgt>
<wgt id='2177'> +5.8987005e+01 </wgt>
<wgt id='2178'> +5.8952307e+01 </wgt>
<wgt id='2179'> +5.9002166e+01 </wgt>
<wgt id='2180'> +5.8915641e+01 </wgt>
<wgt id='2181'> +5.8945127e+01 </wgt>
<wgt id='2182'> +5.8926838e+01 </wgt>
<wgt id='2183'> +5.8951234e+01 </wgt>
<wgt id='2184'> +5.8976434e+01 </wgt>
<wgt id='2185'> +5.8958717e+01 </wgt>
<wgt id='2186'> +5.8970321e+01 </wgt>
<wgt id='2187'> +5.8952954e+01 </wgt>
<wgt id='2188'> +5.8948891e+01 </wgt>
<wgt id='2189'> +5.8941703e+01 </wgt>
<wgt id='2190'> +5.8918920e+01 </wgt>
<wgt id='2191'> +5.8922653e+01 </wgt>
<wgt id='2192'> +5.8923365e+01 </wgt>
<wgt id='2193'> +5.8928087e+01 </wgt>
<wgt id='2194'> +5.8924320e+01 </wgt>
<wgt id='2195'> +5.8937497e+01 </wgt>
<wgt id='2196'> +5.8930277e+01 </wgt>
<wgt id='2197'> +5.8954556e+01 </wgt>
<wgt id='2198'> +5.8940395e+01 </wgt>
<wgt id='2199'> +5.8949729e+01 </wgt>
<wgt id='2200'> +5.8931320e+01 </wgt>
<wgt id='2201'> +5.8917266e+01 </wgt>
<wgt id='2202'> +5.8962998e+01 </wgt>
<wgt id='2203'> +5.8945757e+01 </wgt>
<wgt id='2204'> +5.8937104e+01 </wgt>
<wgt id='2205'> +5.8935188e+01 </wgt>
<wgt id='2206'> +5.8936063e+01 </wgt>
<wgt id='2207'> +5.8947197e+01 </wgt>
<wgt id='2208'> +5.8945528e+01 </wgt>
<wgt id='2209'> +5.8944864e+01 </wgt>
<wgt id='2210'> +5.8945784e+01 </wgt>
<wgt id='2211'> +5.8945817e+01 </wgt>
<wgt id='2212'> +5.8946033e+01 </wgt>
<wgt id='2213'> +5.8945720e+01 </wgt>
<wgt id='2214'> +5.8945146e+01 </wgt>
<wgt id='2215'> +5.7774083e+01 </wgt>
<wgt id='2216'> +5.5395219e+01 </wgt>
<wgt id='2217'> +5.7033560e+01 </wgt>
<wgt id='2218'> +6.0760004e+01 </wgt>
<wgt id='2219'> +6.0188012e+01 </wgt>
<wgt id='2220'> +5.7065099e+01 </wgt>
<wgt id='2221'> +5.7731048e+01 </wgt>
<wgt id='2222'> +5.8093539e+01 </wgt>
<wgt id='2223'> +5.6568917e+01 </wgt>
<wgt id='2224'> +5.8135425e+01 </wgt>
<wgt id='2225'> +5.6445181e+01 </wgt>
<wgt id='2226'> +5.6647592e+01 </wgt>
<wgt id='2227'> +5.8676447e+01 </wgt>
<wgt id='2228'> +5.9116775e+01 </wgt>
<wgt id='2229'> +5.8204930e+01 </wgt>
<wgt id='2230'> +5.7361533e+01 </wgt>
<wgt id='2231'> +5.6385002e+01 </wgt>
<wgt id='2232'> +5.6735335e+01 </wgt>
<wgt id='2233'> +5.5492468e+01 </wgt>
<wgt id='2234'> +5.6774750e+01 </wgt>
<wgt id='2235'> +5.7230148e+01 </wgt>
<wgt id='2236'> +5.9714220e+01 </wgt>
<wgt id='2237'> +5.7224595e+01 </wgt>
<wgt id='2238'> +5.9714255e+01 </wgt>
<wgt id='2239'> +5.9799765e+01 </wgt>
<wgt id='2240'> +5.8182046e+01 </wgt>
<wgt id='2241'> +5.8797775e+01 </wgt>
<wgt id='2242'> +5.6482562e+01 </wgt>
<wgt id='2243'> +5.7928116e+01 </wgt>
<wgt id='2244'> +5.7683779e+01 </wgt>
<wgt id='2245'> +5.8115260e+01 </wgt>
<wgt id='2246'> +5.8819945e+01 </wgt>
<wgt id='2247'> +5.8444998e+01 </wgt>
<wgt id='2248'> +5.8011918e+01 </wgt>
<wgt id='2249'> +5.8577808e+01 </wgt>
<wgt id='2250'> +5.9597153e+01 </wgt>
<wgt id='2251'> +5.7762292e+01 </wgt>
<wgt id='2252'> +5.6364089e+01 </wgt>
<wgt id='2253'> +5.5160425e+01 </wgt>
<wgt id='2254'> +5.7429591e+01 </wgt>
<wgt id='2255'> +5.8453221e+01 </wgt>
<wgt id='2256'> +5.8210755e+01 </wgt>
<wgt id='2257'> +5.7436266e+01 </wgt>
<wgt id='2258'> +5.8593570e+01 </wgt>
<wgt id='2259'> +5.7227147e+01 </wgt>
<wgt id='2260'> +5.7855962e+01 </wgt>
<wgt id='2261'> +5.7398326e+01 </wgt>
<wgt id='2262'> +5.5698661e+01 </wgt>
<wgt id='2263'> +5.7143972e+01 </wgt>
<wgt id='2264'> +5.9038543e+01 </wgt>
<wgt id='2265'> +5.9327595e+01 </wgt>
<wgt id='2266'> +5.8842340e+01 </wgt>
<wgt id='2267'> +5.8517322e+01 </wgt>
<wgt id='2268'> +5.8063321e+01 </wgt>
<wgt id='2269'> +5.8013078e+01 </wgt>
<wgt id='2270'> +5.8557763e+01 </wgt>
<wgt id='2271'> +5.6352760e+01 </wgt>
<wgt id='2272'> +5.9368612e+01 </wgt>
<wgt id='2273'> +5.9187851e+01 </wgt>
<wgt id='2274'> +5.6812820e+01 </wgt>
<wgt id='2275'> +5.7985866e+01 </wgt>
<wgt id='2276'> +5.8158691e+01 </wgt>
<wgt id='2277'> +5.7510227e+01 </wgt>
<wgt id='2278'> +5.8212595e+01 </wgt>
<wgt id='2279'> +5.3426550e+01 </wgt>
<wgt id='2280'> +5.8992628e+01 </wgt>
<wgt id='2281'> +5.8054363e+01 </wgt>
<wgt id='2282'> +5.8459670e+01 </wgt>
<wgt id='2283'> +5.7887695e+01 </wgt>
<wgt id='2284'> +5.6818838e+01 </wgt>
<wgt id='2285'> +5.6866902e+01 </wgt>
<wgt id='2286'> +5.8484357e+01 </wgt>
<wgt id='2287'> +5.7502383e+01 </wgt>
<wgt id='2288'> +5.5989783e+01 </wgt>
<wgt id='2289'> +6.0636505e+01 </wgt>
<wgt id='2290'> +5.7365648e+01 </wgt>
<wgt id='2291'> +5.8625869e+01 </wgt>
<wgt id='2292'> +5.7691561e+01 </wgt>
<wgt id='2293'> +5.7444054e+01 </wgt>
<wgt id='2294'> +5.7464408e+01 </wgt>
<wgt id='2295'> +5.8400008e+01 </wgt>
<wgt id='2296'> +5.8568586e+01 </wgt>
<wgt id='2297'> +5.9449856e+01 </wgt>
<wgt id='2298'> +5.5948069e+01 </wgt>
<wgt id='2299'> +5.8285898e+01 </wgt>
<wgt id='2300'> +5.7681491e+01 </wgt>
<wgt id='2301'> +5.6627950e+01 </wgt>
<wgt id='2302'> +5.8149692e+01 </wgt>
<wgt id='2303'> +5.9227379e+01 </wgt>
<wgt id='2304'> +5.6260423e+01 </wgt>
<wgt id='2305'> +5.8243799e+01 </wgt>
<wgt id='2306'> +5.7510288e+01 </wgt>
<wgt id='2307'> +5.8218438e+01 </wgt>
<wgt id='2308'> +5.7061426e+01 </wgt>
<wgt id='2309'> +5.6506776e+01 </wgt>
<wgt id='2310'> +5.5752359e+01 </wgt>
<wgt id='2311'> +5.7347274e+01 </wgt>
<wgt id='2312'> +5.7454442e+01 </wgt>
<wgt id='2313'> +5.9520284e+01 </wgt>
<wgt id='2314'> +5.8419695e+01 </wgt>
<wgt id='2315'> +5.5370301e+01 </wgt>
<wgt id='2316'> +5.6974305e+01 </wgt>
<wgt id='2317'> +5.8643631e+01 </wgt>
<wgt id='2318'> +5.9100321e+01 </wgt>
<wgt id='2319'> +6.2945304e+01 </wgt>
<wgt id='2320'> +7.2541872e+01 </wgt>
<wgt id='2321'> +5.6162862e+01 </wgt>
<wgt id='2322'> +6.9212937e+01 </wgt>
</rwgt>
</event>
<event>
12      1 +6.1139206e+01 1.95803000e+02 7.56146200e-03 1.05822100e-01
       21 -1    0    0  504  503 +0.0000000000e+00 +0.0000000000e+00 +6.9937335034e+02 6.9937335034e+02 0.0000000000e+00 0.0000e+00 1.0000e+00
       21 -1    0    0  502  504 -0.0000000000e+00 -0.0000000000e+00 -1.0607660234e+02 1.0607660234e+02 0.0000000000e+00 0.0000e+00 1.0000e+00
        6  2    1    2  502    0 +7.1437745790e+01 -5.6964589121e+01 +1.6559415264e+01 1.9650194084e+02 1.7317760416e+02 0.0000e+00 0.0000e+00
       24  2    3    3    0    0 +1.0442818752e+02 -5.9031858468e+01 -2.2501527924e+01 1.4516119162e+02 7.8584006842e+01 0.0000e+00 0.0000e+00
       -6  2    1    2    0  503 -7.1437745790e+01 +5.6964589121e+01 +5.7673733274e+02 6.0894801185e+02 1.7275246519e+02 0.0000e+00 0.0000e+00
      -24  2    5    5    0    0 -4.4249152777e+01 -1.0550311371e+00 +1.2523596464e+02 1.5290365686e+02 7.5738899055e+01 0.0000e+00 0.0000e+00
        4  1    4    4  501    0 -7.0184210995e+00 -9.1464559173e+00 -1.9939184198e+01 2.3032302470e+01 0.0000000000e+00 0.0000e+00 -1.0000e+00
       -3  1    4    4    0  501 +1.1144660861e+02 -4.9885402551e+01 -2.5623437263e+00 1.2212888915e+02 0.0000000000e+00 0.0000e+00 1.0000e+00
        5  1    3    3  502    0 -3.2990441725e+01 +2.0672693471e+00 +3.9060943188e+01 5.1340749220e+01 4.1800000000e+00 0.0000e+00 -1.0000e+00
       15  1    6    6    0    0 -3.3512283079e+00 +9.2433942552e+00 -8.2993268437e+00 1.2866619392e+01 0.0000000000e+00 0.0000e+00 -1.0000e+00
      -16  1    6    6    0    0 -4.0897924469e+01 -1.0298425392e+01 +1.3353529148e+02 1.4003703747e+02 0.0000000000e+00 0.0000e+00 1.0000e+00
       -5  1    5    5    0  503 -2.7188593014e+01 +5.8019620258e+01 +4.5150136810e+02 4.5604435499e+02 4.1800000000e+00 0.0000e+00 1.0000e+00
<scales pt_clust_7="13000.00000" pt_clust_8="13000.00000" pt_clust_9="13000.00000" pt_clust_10="13000.00000" pt_clust_11="13000.00000" pt_clust_12="13000.00000"></scales>
<mgrwt>
<rscale>  2 0.19570891E+03</rscale>
<asrwt>0</asrwt>
<pdfrwt beam="1">  1       21 0.10759590E+00 0.19542705E+03</pdfrwt>
<pdfrwt beam="2">  1       21 0.16319478E-01 0.19542705E+03</pdfrwt>
<totfact> 0.26610670E+02</totfact>
</mgrwt>
<clustering>
<clus scale="   75.739"> 10 11 -1 -1</clus>
<clus scale="   78.584">  7  8 -1 -1</clus>
<clus scale="  172.752"> 10 12 -1 -1</clus>
<clus scale="  173.178">  7  9 -1 -1</clus>
<clus scale="  195.427">  1 10  2 -1</clus>
<clus scale="  195.427">  1  7  2 -1</clus>
</clustering>
<rwgt>
<wgt id='dummy'> +6.1139206e+01 </wgt>
<wgt id='ctGRe_0p_cQj18_0p_cQj38_0p_cQj11_0p_cjj31_0p_ctu8_0p_ctd8_0p_ctj8_0p_cQu8_0p_cQd8_0p_ctu1_0p_ctd1_0p_ctj1_0p_cQu1_0p_cQd1_0p'> +6.1139206e+01 </wgt>
<wgt id='ctGRe_1p_cQj18_0p_cQj38_0p_cQj11_0p_cjj31_0p_ctu8_0p_ctd8_0p_ctj8_0p_cQu8_0p_cQd8_0p_ctu1_0p_ctd1_0p_ctj1_0p_cQu1_0p_cQd1_0p'> +4.8491683e+01 </wgt>
<wgt id='ctGRe_0p_cQj18_1p_cQj38_0p_cQj11_0p_cjj31_0p_ctu8_0p_ctd8_0p_ctj8_0p_cQu8_0p_cQd8_0p_ctu1_0p_ctd1_0p_ctj1_0p_cQu1_0p_cQd1_0p'> +6.1139206e+01 </wgt>
<wgt id='ctGRe_0p_cQj18_0p_cQj38_1p_cQj11_0p_cjj31_0p_ctu8_0p_ctd8_0p_ctj8_0p_cQu8_0p_cQd8_0p_ctu1_0p_ctd1_0p_ctj1_0p_cQu1_0p_cQd1_0p'> +6.1139206e+01 </wgt>
<wgt id='ctGRe_0p_cQj18_0p_cQj38_0p_cQj11_1p_cjj31_0p_ctu8_0p_ctd8_0p_ctj8_0p_cQu8_0p_cQd8_0p_ctu1_0p_ctd1_0p_ctj1_0p_cQu1_0p_cQd1_0p'> +6.1139206e+01 </wgt>
<wgt id='ctGRe_0p_cQj18_0p_cQj38_0p_cQj11_0p_cjj31_1p_ctu8_0p_ctd8_0p_ctj8_0p_cQu8_0p_cQd8_0p_ctu1_0p_ctd1_0p_ctj1_0p_cQu1_0p_cQd1_0p'> +6.1139206e+01 </wgt>
<wgt id='ctGRe_0p_cQj18_0p_cQj38_0p_cQj11_0p_cjj31_0p_ctu8_1p_ctd8_0p_ctj8_0p_cQu8_0p_cQd8_0p_ctu1_0p_ctd1_0p_ctj1_0p_cQu1_0p_cQd1_0p'> +6.1139206e+01 </wgt>
<wgt id='ctGRe_0p_cQj18_0p_cQj38_0p_cQj11_0p_cjj31_0p_ctu8_0p_ctd8_1p_ctj8_0p_cQu8_0p_cQd8_0p_ctu1_0p_ctd1_0p_ctj1_0p_cQu1_0p_cQd1_0p'> +6.1139206e+01 </wgt>
<wgt id='ctGRe_0p_cQj18_0p_cQj38_0p_cQj11_0p_cjj31_0p_ctu8_0p_ctd8_0p_ctj8_1p_cQu8_0p_cQd8_0p_ctu1_0p_ctd1_0p_ctj1_0p_cQu1_0p_cQd1_0p'> +6.1139206e+01 </wgt>
<wgt id='ctGRe_0p_cQj18_0p_cQj38_0p_cQj11_0p_cjj31_0p_ctu8_0p_ctd8_0p_ctj8_0p_cQu8_1p_cQd8_0p_ctu1_0p_ctd1_0p_ctj1_0p_cQu1_0p_cQd1_0p'> +6.1139206e+01 </wgt>
<wgt id='ctGRe_0p_cQj18_0p_cQj38_0p_cQj11_0p_cjj31_0p_ctu8_0p_ctd8_0p_ctj8_0p_cQu8_0p_cQd8_1p_ctu1_0p_ctd1_0p_ctj1_0p_cQu1_0p_cQd1_0p'> +6.1139206e+01 </wgt>
<wgt id='ctGRe_0p_cQj18_0p_cQj38_0p_cQj11_0p_cjj31_0p_ctu8_0p_ctd8_0p_ctj8_0p_cQu8_0p_cQd8_0p_ctu1_1p_ctd1_0p_ctj1_0p_cQu1_0p_cQd1_0p'> +6.1139206e+01 </wgt>
<wgt id='ctGRe_0p_cQj18_0p_cQj38_0p_cQj11_0p_cjj31_0p_ctu8_0p_ctd8_0p_ctj8_0p_cQu8_0p_cQd8_0p_ctu1_0p_ctd1_1p_ctj1_0p_cQu1_0p_cQd1_0p'> +6.1139206e+01 </wgt>
<wgt id='ctGRe_0p_cQj18_0p_cQj38_0p_cQj11_0p_cjj31_0p_ctu8_0p_ctd8_0p_ctj8_0p_cQu8_0p_cQd8_0p_ctu1_0p_ctd1_0p_ctj1_1p_cQu1_0p_cQd1_0p'> +6.1139206e+01 </wgt>
<wgt id='ctGRe_0p_cQj18_0p_cQj38_0p_cQj11_0p_cjj31_0p_ctu8_0p_ctd8_0p_ctj8_0p_cQu8_0p_cQd8_0p_ctu1_0p_ctd1_0p_ctj1_0p_cQu1_1p_cQd1_0p'> +6.1139206e+01 </wgt>
<wgt id='ctGRe_0p_cQj18_0p_cQj38_0p_cQj11_0p_cjj31_0p_ctu8_0p_ctd8_0p_ctj8_0p_cQu8_0p_cQd8_0p_ctu1_0p_ctd1_0p_ctj1_0p_cQu1_0p_cQd1_1p'> +6.1139206e+01 </wgt>
<wgt id='ctGRe_2p_cQj18_0p_cQj38_0p_cQj11_0p_cjj31_0p_ctu8_0p_ctd8_0p_ctj8_0p_cQu8_0p_cQd8_0p_ctu1_0p_ctd1_0p_ctj1_0p_cQu1_0p_cQd1_0p'> +3.7343814e+01 </wgt>
<wgt id='ctGRe_1p_cQj18_1p_cQj38_0p_cQj11_0p_cjj31_0p_ctu8_0p_ctd8_0p_ctj8_0p_cQu8_0p_cQd8_0p_ctu1_0p_ctd1_0p_ctj1_0p_cQu1_0p_cQd1_0p'> +4.8491683e+01 </wgt>
<wgt id='ctGRe_1p_cQj18_0p_cQj38_1p_cQj11_0p_cjj31_0p_ctu8_0p_ctd8_0p_ctj8_0p_cQu8_0p_cQd8_0p_ctu1_0p_ctd1_0p_ctj1_0p_cQu1_0p_cQd1_0p'> +4.8491683e+01 </wgt>
<wgt id='ctGRe_1p_cQj18_0p_cQj38_0p_cQj11_1p_cjj31_0p_ctu8_0p_ctd8_0p_ctj8_0p_cQu8_0p_cQd8_0p_ctu1_0p_ctd1_0p_ctj1_0p_cQu1_0p_cQd1_0p'> +4.8491683e+01 </wgt>
<wgt id='ctGRe_1p_cQj18_0p_cQj38_0p_cQj11_0p_cjj31_1p_ctu8_0p_ctd8_0p_ctj8_0p_cQu8_0p_cQd8_0p_ctu1_0p_ctd1_0p_ctj1_0p_cQu1_0p_cQd1_0p'> +4.8491683e+01 </wgt>
<wgt id='ctGRe_1p_cQj18_0p_cQj38_0p_cQj11_0p_cjj31_0p_ctu8_1p_ctd8_0p_ctj8_0p_cQu8_0p_cQd8_0p_ctu1_0p_ctd1_0p_ctj1_0p_cQu1_0p_cQd1_0p'> +4.8491683e+01 </wgt>
<wgt id='ctGRe_1p_cQj18_0p_cQj38_0p_cQj11_0p_cjj31_0p_ctu8_0p_ctd8_1p_ctj8_0p_cQu8_0p_cQd8_0p_ctu1_0p_ctd1_0p_ctj1_0p_cQu1_0p_cQd1_0p'> +4.8491683e+01 </wgt>
<wgt id='ctGRe_1p_cQj18_0p_cQj38_0p_cQj11_0p_cjj31_0p_ctu8_0p_ctd8_0p_ctj8_1p_cQu8_0p_cQd8_0p_ctu1_0p_ctd1_0p_ctj1_0p_cQu1_0p_cQd1_0p'> +4.8491683e+01 </wgt>
<wgt id='ctGRe_1p_cQj18_0p_cQj38_0p_cQj11_0p_cjj31_0p_ctu8_0p_ctd8_0p_ctj8_0p_cQu8_1p_cQd8_0p_ctu1_0p_ctd1_0p_ctj1_0p_cQu1_0p_cQd1_0p'> +4.8491683e+01 </wgt>
<wgt id='ctGRe_1p_cQj18_0p_cQj38_0p_cQj11_0p_cjj31_0p_ctu8_0p_ctd8_0p_ctj8_0p_cQu8_0p_cQd8_1p_ctu1_0p_ctd1_0p_ctj1_0p_cQu1_0p_cQd1_0p'> +4.8491683e+01 </wgt>
<wgt id='ctGRe_1p_cQj18_0p_cQj38_0p_cQj11_0p_cjj31_0p_ctu8_0p_ctd8_0p_ctj8_0p_cQu8_0p_cQd8_0p_ctu1_1p_ctd1_0p_ctj1_0p_cQu1_0p_cQd1_0p'> +4.8491683e+01 </wgt>
<wgt id='ctGRe_1p_cQj18_0p_cQj38_0p_cQj11_0p_cjj31_0p_ctu8_0p_ctd8_0p_ctj8_0p_cQu8_0p_cQd8_0p_ctu1_0p_ctd1_1p_ctj1_0p_cQu1_0p_cQd1_0p'> +4.8491683e+01 </wgt>
<wgt id='ctGRe_1p_cQj18_0p_cQj38_0p_cQj11_0p_cjj31_0p_ctu8_0p_ctd8_0p_ctj8_0p_cQu8_0p_cQd8_0p_ctu1_0p_ctd1_0p_ctj1_1p_cQu1_0p_cQd1_0p'> +4.8491683e+01 </wgt>
<wgt id='ctGRe_1p_cQj18_0p_cQj38_0p_cQj11_0p_cjj31_0p_ctu8_0p_ctd8_0p_ctj8_0p_cQu8_0p_cQd8_0p_ctu1_0p_ctd1_0p_ctj1_0p_cQu1_1p_cQd1_0p'> +4.8491683e+01 </wgt>
<wgt id='ctGRe_1p_cQj18_0p_cQj38_0p_cQj11_0p_cjj31_0p_ctu8_0p_ctd8_0p_ctj8_0p_cQu8_0p_cQd8_0p_ctu1_0p_ctd1_0p_ctj1_0p_cQu1_0p_cQd1_1p'> +4.8491683e+01 </wgt>
<wgt id='ctGRe_0p_cQj18_2p_cQj38_0p_cQj11_0p_cjj31_0p_ctu8_0p_ctd8_0p_ctj8_0p_cQu8_0p_cQd8_0p_ctu1_0p_ctd1_0p_ctj1_0p_cQu1_0p_cQd1_0p'> +6.1139206e+01 </wgt>
<wgt id='ctGRe_0p_cQj18_1p_cQj38_1p_cQj11_0p_cjj31_0p_ctu8_0p_ctd8_0p_ctj8_0p_cQu8_0p_cQd8_0p_ctu1_0p_ctd1_0p_ctj1_0p_cQu1_0p_cQd1_0p'> +6.1139206e+01 </wgt>
<wgt id='ctGRe_0p_cQj18_1p_cQj38_0p_cQj11_1p_cjj31_0p_ctu8_0p_ctd8_0p_ctj8_0p_cQu8_0p_cQd8_0p_ctu1_0p_ctd1_0p_ctj1_0p_cQu1_0p_cQd1_0p'> +6.1139206e+01 </wgt>
<wgt id='ctGRe_0p_cQj18_1p_cQj38_0p_cQj11_0p_cjj31_1p_ctu8_0p_ctd8_0p_ctj8_0p_cQu8_0p_cQd8_0p_ctu1_0p_ctd1_0p_ctj1_0p_cQu1_0p_cQd1_0p'> +6.1139206e+01 </wgt>
<wgt id='ctGRe_0p_cQj18_1p_cQj38_0p_cQj11_0p_cjj31_0p_ctu8_1p_ctd8_0p_ctj8_0p_cQu8_0p_cQd8_0p_ctu1_0p_ctd1_0p_ctj1_0p_cQu1_0p_cQd1_0p'> +6.1139206e+01 </wgt>
<wgt id='ctGRe_0p_cQj18_1p_cQj38_0p_cQj11_0p_cjj31_0p_ctu8_0p_ctd8_1p_ctj8_0p_cQu8_0p_cQd8_0p_ctu1_0p_ctd1_0p_ctj1_0p_cQu1_0p_cQd1_0p'> +6.1139206e+01 </wgt>
<wgt id='ctGRe_0p_cQj18_1p_cQj38_0p_cQj11_0p_cjj31_0p_ctu8_0p_ctd8_0p_ctj8_1p_cQu8_0p_cQd8_0p_ctu1_0p_ctd1_0p_ctj1_0p_cQu1_0p_cQd1_0p'> +6.1139206e+01 </wgt>
<wgt id='ctGRe_0p_cQj18_1p_cQj38_0p_cQj11_0p_cjj31_0p_ctu8_0p_ctd8_0p_ctj8_0p_cQu8_1p_cQd8_0p_ctu1_0p_ctd1_0p_ctj1_0p_cQu1_0p_cQd1_0p'> +6.1139206e+01 </wgt>
<wgt id='ctGRe_0p_cQj18_1p_cQj38_0p_cQj11_0p_cjj31_0p_ctu8_0p_ctd8_0p_ctj8_0p_cQu8_0p_cQd8_1p_ctu1_0p_ctd1_0p_ctj1_0p_cQu1_0p_cQd1_0p'> +6.1139206e+01 </wgt>
<wgt id='ctGRe_0p_cQj18_1p_cQj38_0p_cQj11_0p_cjj31_0p_ctu8_0p_ctd8_0p_ctj8_0p_cQu8_0p_cQd8_0p_ctu1_1p_ctd1_0p_ctj1_0p_cQu1_0p_cQd1_0p'> +6.1139206e+01 </wgt>
<wgt id='ctGRe_0p_cQj18_1p_cQj38_0p_cQj11_0p_cjj31_0p_ctu8_0p_ctd8_0p_ctj8_0p_cQu8_0p_cQd8_0p_ctu1_0p_ctd1_1p_ctj1_0p_cQu1_0p_cQd1_0p'> +6.1139206e+01 </wgt>
<wgt id='ctGRe_0p_cQj18_1p_cQj38_0p_cQj11_0p_cjj31_0p_ctu8_0p_ctd8_0p_ctj8_0p_cQu8_0p_cQd8_0p_ctu1_0p_ctd1_0p_ctj1_1p_cQu1_0p_cQd1_0p'> +6.1139206e+01 </wgt>
<wgt id='ctGRe_0p_cQj18_1p_cQj38_0p_cQj11_0p_cjj31_0p_ctu8_0p_ctd8_0p_ctj8_0p_cQu8_0p_cQd8_0p_ctu1_0p_ctd1_0p_ctj1_0p_cQu1_1p_cQd1_0p'> +6.1139206e+01 </wgt>
<wgt id='ctGRe_0p_cQj18_1p_cQj38_0p_cQj11_0p_cjj31_0p_ctu8_0p_ctd8_0p_ctj8_0p_cQu8_0p_cQd8_0p_ctu1_0p_ctd1_0p_ctj1_0p_cQu1_0p_cQd1_1p'> +6.1139206e+01 </wgt>
<wgt id='ctGRe_0p_cQj18_0p_cQj38_2p_cQj11_0p_cjj31_0p_ctu8_0p_ctd8_0p_ctj8_0p_cQu8_0p_cQd8_0p_ctu1_0p_ctd1_0p_ctj1_0p_cQu1_0p_cQd1_0p'> +6.1139206e+01 </wgt>
<wgt id='ctGRe_0p_cQj18_0p_cQj38_1p_cQj11_1p_cjj31_0p_ctu8_0p_ctd8_0p_ctj8_0p_cQu8_0p_cQd8_0p_ctu1_0p_ctd1_0p_ctj1_0p_cQu1_0p_cQd1_0p'> +6.1139206e+01 </wgt>
<wgt id='ctGRe_0p_cQj18_0p_cQj38_1p_cQj11_0p_cjj31_1p_ctu8_0p_ctd8_0p_ctj8_0p_cQu8_0p_cQd8_0p_ctu1_0p_ctd1_0p_ctj1_0p_cQu1_0p_cQd1_0p'> +6.1139206e+01 </wgt>
<wgt id='ctGRe_0p_cQj18_0p_cQj38_1p_cQj11_0p_cjj31_0p_ctu8_1p_ctd8_0p_ctj8_0p_cQu8_0p_cQd8_0p_ctu1_0p_ctd1_0p_ctj1_0p_cQu1_0p_cQd1_0p'> +6.1139206e+01 </wgt>
<wgt id='ctGRe_0p_cQj18_0p_cQj38_1p_cQj11_0p_cjj31_0p_ctu8_0p_ctd8_1p_ctj8_0p_cQu8_0p_cQd8_0p_ctu1_0p_ctd1_0p_ctj1_0p_cQu1_0p_cQd1_0p'> +6.1139206e+01 </wgt>
<wgt id='ctGRe_0p_cQj18_0p_cQj38_1p_cQj11_0p_cjj31_0p_ctu8_0p_ctd8_0p_ctj8_1p_cQu8_0p_cQd8_0p_ctu1_0p_ctd1_0p_ctj1_0p_cQu1_0p_cQd1_0p'> +6.1139206e+01 </wgt>
<wgt id='ctGRe_0p_cQj18_0p_cQj38_1p_cQj11_0p_cjj31_0p_ctu8_0p_ctd8_0p_ctj8_0p_cQu8_1p_cQd8_0p_ctu1_0p_ctd1_0p_ctj1_0p_cQu1_0p_cQd1_0p'> +6.1139206e+01 </wgt>
<wgt id='ctGRe_0p_cQj18_0p_cQj38_1p_cQj11_0p_cjj31_0p_ctu8_0p_ctd8_0p_ctj8_0p_cQu8_0p_cQd8_1p_ctu1_0p_ctd1_0p_ctj1_0p_cQu1_0p_cQd1_0p'> +6.1139206e+01 </wgt>
<wgt id='ctGRe_0p_cQj18_0p_cQj38_1p_cQj11_0p_cjj31_0p_ctu8_0p_ctd8_0p_ctj8_0p_cQu8_0p_cQd8_0p_ctu1_1p_ctd1_0p_ctj1_0p_cQu1_0p_cQd1_0p'> +6.1139206e+01 </wgt>
<wgt id='ctGRe_0p_cQj18_0p_cQj38_1p_cQj11_0p_cjj31_0p_ctu8_0p_ctd8_0p_ctj8_0p_cQu8_0p_cQd8_0p_ctu1_0p_ctd1_1p_ctj1_0p_cQu1_0p_cQd1_0p'> +6.1139206e+01 </wgt>
<wgt id='ctGRe_0p_cQj18_0p_cQj38_1p_cQj11_0p_cjj31_0p_ctu8_0p_ctd8_0p_ctj8_0p_cQu8_0p_cQd8_0p_ctu1_0p_ctd1_0p_ctj1_1p_cQu1_0p_cQd1_0p'> +6.1139206e+01 </wgt>
<wgt id='ctGRe_0p_cQj18_0p_cQj38_1p_cQj11_0p_cjj31_0p_ctu8_0p_ctd8_0p_ctj8_0p_cQu8_0p_cQd8_0p_ctu1_0p_ctd1_0p_ctj1_0p_cQu1_1p_cQd1_0p'> +6.1139206e+01 </wgt>
<wgt id='ctGRe_0p_cQj18_0p_cQj38_1p_cQj11_0p_cjj31_0p_ctu8_0p_ctd8_0p_ctj8_0p_cQu8_0p_cQd8_0p_ctu1_0p_ctd1_0p_ctj1_0p_cQu1_0p_cQd1_1p'> +6.1139206e+01 </wgt>
<wgt id='ctGRe_0p_cQj18_0p_cQj38_0p_cQj11_2p_cjj31_0p_ctu8_0p_ctd8_0p_ctj8_0p_cQu8_0p_cQd8_0p_ctu1_0p_ctd1_0p_ctj1_0p_cQu1_0p_cQd1_0p'> +6.1139206e+01 </wgt>
<wgt id='ctGRe_0p_cQj18_0p_cQj38_0p_cQj11_1p_cjj31_1p_ctu8_0p_ctd8_0p_ctj8_0p_cQu8_0p_cQd8_0p_ctu1_0p_ctd1_0p_ctj1_0p_cQu1_0p_cQd1_0p'> +6.1139206e+01 </wgt>
<wgt id='ctGRe_0p_cQj18_0p_cQj38_0p_cQj11_1p_cjj31_0p_ctu8_1p_ctd8_0p_ctj8_0p_cQu8_0p_cQd8_0p_ctu1_0p_ctd1_0p_ctj1_0p_cQu1_0p_cQd1_0p'> +6.1139206e+01 </wgt>
<wgt id='ctGRe_0p_cQj18_0p_cQj38_0p_cQj11_1p_cjj31_0p_ctu8_0p_ctd8_1p_ctj8_0p_cQu8_0p_cQd8_0p_ctu1_0p_ctd1_0p_ctj1_0p_cQu1_0p_cQd1_0p'> +6.1139206e+01 </wgt>
<wgt id='ctGRe_0p_cQj18_0p_cQj38_0p_cQj11_1p_cjj31_0p_ctu8_0p_ctd8_0p_ctj8_1p_cQu8_0p_cQd8_0p_ctu1_0p_ctd1_0p_ctj1_0p_cQu1_0p_cQd1_0p'> +6.1139206e+01 </wgt>
<wgt id='ctGRe_0p_cQj18_0p_cQj38_0p_cQj11_1p_cjj31_0p_ctu8_0p_ctd8_0p_ctj8_0p_cQu8_1p_cQd8_0p_ctu1_0p_ctd1_0p_ctj1_0p_cQu1_0p_cQd1_0p'> +6.1139206e+01 </wgt>
<wgt id='ctGRe_0p_cQj18_0p_cQj38_0p_cQj11_1p_cjj31_0p_ctu8_0p_ctd8_0p_ctj8_0p_cQu8_0p_cQd8_1p_ctu1_0p_ctd1_0p_ctj1_0p_cQu1_0p_cQd1_0p'> +6.1139206e+01 </wgt>
<wgt id='ctGRe_0p_cQj18_0p_cQj38_0p_cQj11_1p_cjj31_0p_ctu8_0p_ctd8_0p_ctj8_0p_cQu8_0p_cQd8_0p_ctu1_1p_ctd1_0p_ctj1_0p_cQu1_0p_cQd1_0p'> +6.1139206e+01 </wgt>
<wgt id='ctGRe_0p_cQj18_0p_cQj38_0p_cQj11_1p_cjj31_0p_ctu8_0p_ctd8_0p_ctj8_0p_cQu8_0p_cQd8_0p_ctu1_0p_ctd1_1p_ctj1_0p_cQu1_0p_cQd1_0p'> +6.1139206e+01 </wgt>
<wgt id='ctGRe_0p_cQj18_0p_cQj38_0p_cQj11_1p_cjj31_0p_ctu8_0p_ctd8_0p_ctj8_0p_cQu8_0p_cQd8_0p_ctu1_0p_ctd1_0p_ctj1_1p_cQu1_0p_cQd1_0p'> +6.1139206e+01 </wgt>
<wgt id='ctGRe_0p_cQj18_0p_cQj38_0p_cQj11_1p_cjj31_0p_ctu8_0p_ctd8_0p_ctj8_0p_cQu8_0p_cQd8_0p_ctu1_0p_ctd1_0p_ctj1_0p_cQu1_1p_cQd1_0p'> +6.1139206e+01 </wgt>
<wgt id='ctGRe_0p_cQj18_0p_cQj38_0p_cQj11_1p_cjj31_0p_ctu8_0p_ctd8_0p_ctj8_0p_cQu8_0p_cQd8_0p_ctu1_0p_ctd1_0p_ctj1_0p_cQu1_0p_cQd1_1p'> +6.1139206e+01 </wgt>
<wgt id='ctGRe_0p_cQj18_0p_cQj38_0p_cQj11_0p_cjj31_2p_ctu8_0p_ctd8_0p_ctj8_0p_cQu8_0p_cQd8_0p_ctu1_0p_ctd1_0p_ctj1_0p_cQu1_0p_cQd1_0p'> +6.1139206e+01 </wgt>
<wgt id='ctGRe_0p_cQj18_0p_cQj38_0p_cQj11_0p_cjj31_1p_ctu8_1p_ctd8_0p_ctj8_0p_cQu8_0p_cQd8_0p_ctu1_0p_ctd1_0p_ctj1_0p_cQu1_0p_cQd1_0p'> +6.1139206e+01 </wgt>
<wgt id='ctGRe_0p_cQj18_0p_cQj38_0p_cQj11_0p_cjj31_1p_ctu8_0p_ctd8_1p_ctj8_0p_cQu8_0p_cQd8_0p_ctu1_0p_ctd1_0p_ctj1_0p_cQu1_0p_cQd1_0p'> +6.1139206e+01 </wgt>
<wgt id='ctGRe_0p_cQj18_0p_cQj38_0p_cQj11_0p_cjj31_1p_ctu8_0p_ctd8_0p_ctj8_1p_cQu8_0p_cQd8_0p_ctu1_0p_ctd1_0p_ctj1_0p_cQu1_0p_cQd1_0p'> +6.1139206e+01 </wgt>
<wgt id='ctGRe_0p_cQj18_0p_cQj38_0p_cQj11_0p_cjj31_1p_ctu8_0p_ctd8_0p_ctj8_0p_cQu8_1p_cQd8_0p_ctu1_0p_ctd1_0p_ctj1_0p_cQu1_0p_cQd1_0p'> +6.1139206e+01 </wgt>
<wgt id='ctGRe_0p_cQj18_0p_cQj38_0p_cQj11_0p_cjj31_1p_ctu8_0p_ctd8_0p_ctj8_0p_cQu8_0p_cQd8_1p_ctu1_0p_ctd1_0p_ctj1_0p_cQu1_0p_cQd1_0p'> +6.1139206e+01 </wgt>
<wgt id='ctGRe_0p_cQj18_0p_cQj38_0p_cQj11_0p_cjj31_1p_ctu8_0p_ctd8_0p_ctj8_0p_cQu8_0p_cQd8_0p_ctu1_1p_ctd1_0p_ctj1_0p_cQu1_0p_cQd1_0p'> +6.1139206e+01 </wgt>
<wgt id='ctGRe_0p_cQj18_0p_cQj38_0p_cQj11_0p_cjj31_1p_ctu8_0p_ctd8_0p_ctj8_0p_cQu8_0p_cQd8_0p_ctu1_0p_ctd1_1p_ctj1_0p_cQu1_0p_cQd1_0p'> +6.1139206e+01 </wgt>
<wgt id='ctGRe_0p_cQj18_0p_cQj38_0p_cQj11_0p_cjj31_1p_ctu8_0p_ctd8_0p_ctj8_0p_cQu8_0p_cQd8_0p_ctu1_0p_ctd1_0p_ctj1_1p_cQu1_0p_cQd1_0p'> +6.1139206e+01 </wgt>
<wgt id='ctGRe_0p_cQj18_0p_cQj38_0p_cQj11_0p_cjj31_1p_ctu8_0p_ctd8_0p_ctj8_0p_cQu8_0p_cQd8_0p_ctu1_0p_ctd1_0p_ctj1_0p_cQu1_1p_cQd1_0p'> +6.1139206e+01 </wgt>
<wgt id='ctGRe_0p_cQj18_0p_cQj38_0p_cQj11_0p_cjj31_1p_ctu8_0p_ctd8_0p_ctj8_0p_cQu8_0p_cQd8_0p_ctu1_0p_ctd1_0p_ctj1_0p_cQu1_0p_cQd1_1p'> +6.1139206e+01 </wgt>
<wgt id='ctGRe_0p_cQj18_0p_cQj38_0p_cQj11_0p_cjj31_0p_ctu8_2p_ctd8_0p_ctj8_0p_cQu8_0p_cQd8_0p_ctu1_0p_ctd1_0p_ctj1_0p_cQu1_0p_cQd1_0p'> +6.1139206e+01 </wgt>
<wgt id='ctGRe_0p_cQj18_0p_cQj38_0p_cQj11_0p_cjj31_0p_ctu8_1p_ctd8_1p_ctj8_0p_cQu8_0p_cQd8_0p_ctu1_0p_ctd1_0p_ctj1_0p_cQu1_0p_cQd1_0p'> +6.1139206e+01 </wgt>
<wgt id='ctGRe_0p_cQj18_0p_cQj38_0p_cQj11_0p_cjj31_0p_ctu8_1p_ctd8_0p_ctj8_1p_cQu8_0p_cQd8_0p_ctu1_0p_ctd1_0p_ctj1_0p_cQu1_0p_cQd1_0p'> +6.1139206e+01 </wgt>
<wgt id='ctGRe_0p_cQj18_0p_cQj38_0p_cQj11_0p_cjj31_0p_ctu8_1p_ctd8_0p_ctj8_0p_cQu8_1p_cQd8_0p_ctu1_0p_ctd1_0p_ctj1_0p_cQu1_0p_cQd1_0p'> +6.1139206e+01 </wgt>
<wgt id='ctGRe_0p_cQj18_0p_cQj38_0p_cQj11_0p_cjj31_0p_ctu8_1p_ctd8_0p_ctj8_0p_cQu8_0p_cQd8_1p_ctu1_0p_ctd1_0p_ctj1_0p_cQu1_0p_cQd1_0p'> +6.1139206e+01 </wgt>
<wgt id='ctGRe_0p_cQj18_0p_cQj38_0p_cQj11_0p_cjj31_0p_ctu8_1p_ctd8_0p_ctj8_0p_cQu8_0p_cQd8_0p_ctu1_1p_ctd1_0p_ctj1_0p_cQu1_0p_cQd1_0p'> +6.1139206e+01 </wgt>
<wgt id='ctGRe_0p_cQj18_0p_cQj38_0p_cQj11_0p_cjj31_0p_ctu8_1p_ctd8_0p_ctj8_0p_cQu8_0p_cQd8_0p_ctu1_0p_ctd1_1p_ctj1_0p_cQu1_0p_cQd1_0p'> +6.1139206e+01 </wgt>
<wgt id='ctGRe_0p_cQj18_0p_cQj38_0p_cQj11_0p_cjj31_0p_ctu8_1p_ctd8_0p_ctj8_0p_cQu8_0p_cQd8_0p_ctu1_0p_ctd1_0p_ctj1_1p_cQu1_0p_cQd1_0p'> +6.1139206e+01 </wgt>
<wgt id='ctGRe_0p_cQj18_0p_cQj38_0p_cQj11_0p_cjj31_0p_ctu8_1p_ctd8_0p_ctj8_0p_cQu8_0p_cQd8_0p_ctu1_0p_ctd1_0p_ctj1_0p_cQu1_1p_cQd1_0p'> +6.1139206e+01 </wgt>
<wgt id='ctGRe_0p_cQj18_0p_cQj38_0p_cQj11_0p_cjj31_0p_ctu8_1p_ctd8_0p_ctj8_0p_cQu8_0p_cQd8_0p_ctu1_0p_ctd1_0p_ctj1_0p_cQu1_0p_cQd1_1p'> +6.1139206e+01 </wgt>
<wgt id='ctGRe_0p_cQj18_0p_cQj38_0p_cQj11_0p_cjj31_0p_ctu8_0p_ctd8_2p_ctj8_0p_cQu8_0p_cQd8_0p_ctu1_0p_ctd1_0p_ctj1_0p_cQu1_0p_cQd1_0p'> +6.1139206e+01 </wgt>
<wgt id='ctGRe_0p_cQj18_0p_cQj38_0p_cQj11_0p_cjj31_0p_ctu8_0p_ctd8_1p_ctj8_1p_cQu8_0p_cQd8_0p_ctu1_0p_ctd1_0p_ctj1_0p_cQu1_0p_cQd1_0p'> +6.1139206e+01 </wgt>
<wgt id='ctGRe_0p_cQj18_0p_cQj38_0p_cQj11_0p_cjj31_0p_ctu8_0p_ctd8_1p_ctj8_0p_cQu8_1p_cQd8_0p_ctu1_0p_ctd1_0p_ctj1_0p_cQu1_0p_cQd1_0p'> +6.1139206e+01 </wgt>
<wgt id='ctGRe_0p_cQj18_0p_cQj38_0p_cQj11_0p_cjj31_0p_ctu8_0p_ctd8_1p_ctj8_0p_cQu8_0p_cQd8_1p_ctu1_0p_ctd1_0p_ctj1_0p_cQu1_0p_cQd1_0p'> +6.1139206e+01 </wgt>
<wgt id='ctGRe_0p_cQj18_0p_cQj38_0p_cQj11_0p_cjj31_0p_ctu8_0p_ctd8_1p_ctj8_0p_cQu8_0p_cQd8_0p_ctu1_1p_ctd1_0p_ctj1_0p_cQu1_0p_cQd1_0p'> +6.1139206e+01 </wgt>
<wgt id='ctGRe_0p_cQj18_0p_cQj38_0p_cQj11_0p_cjj31_0p_ctu8_0p_ctd8_1p_ctj8_0p_cQu8_0p_cQd8_0p_ctu1_0p_ctd1_1p_ctj1_0p_cQu1_0p_cQd1_0p'> +6.1139206e+01 </wgt>
<wgt id='ctGRe_0p_cQj18_0p_cQj38_0p_cQj11_0p_cjj31_0p_ctu8_0p_ctd8_1p_ctj8_0p_cQu8_0p_cQd8_0p_ctu1_0p_ctd1_0p_ctj1_1p_cQu1_0p_cQd1_0p'> +6.1139206e+01 </wgt>
<wgt id='ctGRe_0p_cQj18_0p_cQj38_0p_cQj11_0p_cjj31_0p_ctu8_0p_ctd8_1p_ctj8_0p_cQu8_0p_cQd8_0p_ctu1_0p_ctd1_0p_ctj1_0p_cQu1_1p_cQd1_0p'> +6.1139206e+01 </wgt>
<wgt id='ctGRe_0p_cQj18_0p_cQj38_0p_cQj11_0p_cjj31_0p_ctu8_0p_ctd8_1p_ctj8_0p_cQu8_0p_cQd8_0p_ctu1_0p_ctd1_0p_ctj1_0p_cQu1_0p_cQd1_1p'> +6.1139206e+01 </wgt>
<wgt id='ctGRe_0p_cQj18_0p_cQj38_0p_cQj11_0p_cjj31_0p_ctu8_0p_ctd8_0p_ctj8_2p_cQu8_0p_cQd8_0p_ctu1_0p_ctd1_0p_ctj1_0p_cQu1_0p_cQd1_0p'> +6.1139206e+01 </wgt>
<wgt id='ctGRe_0p_cQj18_0p_cQj38_0p_cQj11_0p_cjj31_0p_ctu8_0p_ctd8_0p_ctj8_1p_cQu8_1p_cQd8_0p_ctu1_0p_ctd1_0p_ctj1_0p_cQu1_0p_cQd1_0p'> +6.1139206e+01 </wgt>
<wgt id='ctGRe_0p_cQj18_0p_cQj38_0p_cQj11_0p_cjj31_0p_ctu8_0p_ctd8_0p_ctj8_1p_cQu8_0p_cQd8_1p_ctu1_0p_ctd1_0p_ctj1_0p_cQu1_0p_cQd1_0p'> +6.1139206e+01 </wgt>
<wgt id='ctGRe_0p_cQj18_0p_cQj38_0p_cQj11_0p_cjj31_0p_ctu8_0p_ctd8_0p_ctj8_1p_cQu8_0p_cQd8_0p_ctu1_1p_ctd1_0p_ctj1_0p_cQu1_0p_cQd1_0p'> +6.1139206e+01 </wgt>
<wgt id='ctGRe_0p_cQj18_0p_cQj38_0p_cQj11_0p_cjj31_0p_ctu8_0p_ctd8_0p_ctj8_1p_cQu8_0p_cQd8_0p_ctu1_0p_ctd1_1p_ctj1_0p_cQu1_0p_cQd1_0p'> +6.1139206e+01 </wgt>
<wgt id='ctGRe_0p_cQj18_0p_cQj38_0p_cQj11_0p_cjj31_0p_ctu8_0p_ctd8_0p_ctj8_1p_cQu8_0p_cQd8_0p_ctu1_0p_ctd1_0p_ctj1_1p_cQu1_0p_cQd1_0p'> +6.1139206e+01 </wgt>
<wgt id='ctGRe_0p_cQj18_0p_cQj38_0p_cQj11_0p_cjj31_0p_ctu8_0p_ctd8_0p_ctj8_1p_cQu8_0p_cQd8_0p_ctu1_0p_ctd1_0p_ctj1_0p_cQu1_1p_cQd1_0p'> +6.1139206e+01 </wgt>
<wgt id='ctGRe_0p_cQj18_0p_cQj38_0p_cQj11_0p_cjj31_0p_ctu8_0p_ctd8_0p_ctj8_1p_cQu8_0p_cQd8_0p_ctu1_0p_ctd1_0p_ctj1_0p_cQu1_0p_cQd1_1p'> +6.1139206e+01 </wgt>
<wgt id='ctGRe_0p_cQj18_0p_cQj38_0p_cQj11_0p_cjj31_0p_ctu8_0p_ctd8_0p_ctj8_0p_cQu8_2p_cQd8_0p_ctu1_0p_ctd1_0p_ctj1_0p_cQu1_0p_cQd1_0p'> +6.1139206e+01 </wgt>
<wgt id='ctGRe_0p_cQj18_0p_cQj38_0p_cQj11_0p_cjj31_0p_ctu8_0p_ctd8_0p_ctj8_0p_cQu8_1p_cQd8_1p_ctu1_0p_ctd1_0p_ctj1_0p_cQu1_0p_cQd1_0p'> +6.1139206e+01 </wgt>
<wgt id='ctGRe_0p_cQj18_0p_cQj38_0p_cQj11_0p_cjj31_0p_ctu8_0p_ctd8_0p_ctj8_0p_cQu8_1p_cQd8_0p_ctu1_1p_ctd1_0p_ctj1_0p_cQu1_0p_cQd1_0p'> +6.1139206e+01 </wgt>
<wgt id='ctGRe_0p_cQj18_0p_cQj38_0p_cQj11_0p_cjj31_0p_ctu8_0p_ctd8_0p_ctj8_0p_cQu8_1p_cQd8_0p_ctu1_0p_ctd1_1p_ctj1_0p_cQu1_0p_cQd1_0p'> +6.1139206e+01 </wgt>
<wgt id='ctGRe_0p_cQj18_0p_cQj38_0p_cQj11_0p_cjj31_0p_ctu8_0p_ctd8_0p_ctj8_0p_cQu8_1p_cQd8_0p_ctu1_0p_ctd1_0p_ctj1_1p_cQu1_0p_cQd1_0p'> +6.1139206e+01 </wgt>
<wgt id='ctGRe_0p_cQj18_0p_cQj38_0p_cQj11_0p_cjj31_0p_ctu8_0p_ctd8_0p_ctj8_0p_cQu8_1p_cQd8_0p_ctu1_0p_ctd1_0p_ctj1_0p_cQu1_1p_cQd1_0p'> +6.1139206e+01 </wgt>
<wgt id='ctGRe_0p_cQj18_0p_cQj38_0p_cQj11_0p_cjj31_0p_ctu8_0p_ctd8_0p_ctj8_0p_cQu8_1p_cQd8_0p_ctu1_0p_ctd1_0p_ctj1_0p_cQu1_0p_cQd1_1p'> +6.1139206e+01 </wgt>
<wgt id='ctGRe_0p_cQj18_0p_cQj38_0p_cQj11_0p_cjj31_0p_ctu8_0p_ctd8_0p_ctj8_0p_cQu8_0p_cQd8_2p_ctu1_0p_ctd1_0p_ctj1_0p_cQu1_0p_cQd1_0p'> +6.1139206e+01 </wgt>
<wgt id='ctGRe_0p_cQj18_0p_cQj38_0p_cQj11_0p_cjj31_0p_ctu8_0p_ctd8_0p_ctj8_0p_cQu8_0p_cQd8_1p_ctu1_1p_ctd1_0p_ctj1_0p_cQu1_0p_cQd1_0p'> +6.1139206e+01 </wgt>
<wgt id='ctGRe_0p_cQj18_0p_cQj38_0p_cQj11_0p_cjj31_0p_ctu8_0p_ctd8_0p_ctj8_0p_cQu8_0p_cQd8_1p_ctu1_0p_ctd1_1p_ctj1_0p_cQu1_0p_cQd1_0p'> +6.1139206e+01 </wgt>
<wgt id='ctGRe_0p_cQj18_0p_cQj38_0p_cQj11_0p_cjj31_0p_ctu8_0p_ctd8_0p_ctj8_0p_cQu8_0p_cQd8_1p_ctu1_0p_ctd1_0p_ctj1_1p_cQu1_0p_cQd1_0p'> +6.1139206e+01 </wgt>
<wgt id='ctGRe_0p_cQj18_0p_cQj38_0p_cQj11_0p_cjj31_0p_ctu8_0p_ctd8_0p_ctj8_0p_cQu8_0p_cQd8_1p_ctu1_0p_ctd1_0p_ctj1_0p_cQu1_1p_cQd1_0p'> +6.1139206e+01 </wgt>
<wgt id='ctGRe_0p_cQj18_0p_cQj38_0p_cQj11_0p_cjj31_0p_ctu8_0p_ctd8_0p_ctj8_0p_cQu8_0p_cQd8_1p_ctu1_0p_ctd1_0p_ctj1_0p_cQu1_0p_cQd1_1p'> +6.1139206e+01 </wgt>
<wgt id='ctGRe_0p_cQj18_0p_cQj38_0p_cQj11_0p_cjj31_0p_ctu8_0p_ctd8_0p_ctj8_0p_cQu8_0p_cQd8_0p_ctu1_2p_ctd1_0p_ctj1_0p_cQu1_0p_cQd1_0p'> +6.1139206e+01 </wgt>
<wgt id='ctGRe_0p_cQj18_0p_cQj38_0p_cQj11_0p_cjj31_0p_ctu8_0p_ctd8_0p_ctj8_0p_cQu8_0p_cQd8_0p_ctu1_1p_ctd1_1p_ctj1_0p_cQu1_0p_cQd1_0p'> +6.1139206e+01 </wgt>
<wgt id='ctGRe_0p_cQj18_0p_cQj38_0p_cQj11_0p_cjj31_0p_ctu8_0p_ctd8_0p_ctj8_0p_cQu8_0p_cQd8_0p_ctu1_1p_ctd1_0p_ctj1_1p_cQu1_0p_cQd1_0p'> +6.1139206e+01 </wgt>
<wgt id='ctGRe_0p_cQj18_0p_cQj38_0p_cQj11_0p_cjj31_0p_ctu8_0p_ctd8_0p_ctj8_0p_cQu8_0p_cQd8_0p_ctu1_1p_ctd1_0p_ctj1_0p_cQu1_1p_cQd1_0p'> +6.1139206e+01 </wgt>
<wgt id='ctGRe_0p_cQj18_0p_cQj38_0p_cQj11_0p_cjj31_0p_ctu8_0p_ctd8_0p_ctj8_0p_cQu8_0p_cQd8_0p_ctu1_1p_ctd1_0p_ctj1_0p_cQu1_0p_cQd1_1p'> +6.1139206e+01 </wgt>
<wgt id='ctGRe_0p_cQj18_0p_cQj38_0p_cQj11_0p_cjj31_0p_ctu8_0p_ctd8_0p_ctj8_0p_cQu8_0p_cQd8_0p_ctu1_0p_ctd1_2p_ctj1_0p_cQu1_0p_cQd1_0p'> +6.1139206e+01 </wgt>
<wgt id='ctGRe_0p_cQj18_0p_cQj38_0p_cQj11_0p_cjj31_0p_ctu8_0p_ctd8_0p_ctj8_0p_cQu8_0p_cQd8_0p_ctu1_0p_ctd1_1p_ctj1_1p_cQu1_0p_cQd1_0p'> +6.1139206e+01 </wgt>
<wgt id='ctGRe_0p_cQj18_0p_cQj38_0p_cQj11_0p_cjj31_0p_ctu8_0p_ctd8_0p_ctj8_0p_cQu8_0p_cQd8_0p_ctu1_0p_ctd1_1p_ctj1_0p_cQu1_1p_cQd1_0p'> +6.1139206e+01 </wgt>
<wgt id='ctGRe_0p_cQj18_0p_cQj38_0p_cQj11_0p_cjj31_0p_ctu8_0p_ctd8_0p_ctj8_0p_cQu8_0p_cQd8_0p_ctu1_0p_ctd1_1p_ctj1_0p_cQu1_0p_cQd1_1p'> +6.1139206e+01 </wgt>
<wgt id='ctGRe_0p_cQj18_0p_cQj38_0p_cQj11_0p_cjj31_0p_ctu8_0p_ctd8_0p_ctj8_0p_cQu8_0p_cQd8_0p_ctu1_0p_ctd1_0p_ctj1_2p_cQu1_0p_cQd1_0p'> +6.1139206e+01 </wgt>
<wgt id='ctGRe_0p_cQj18_0p_cQj38_0p_cQj11_0p_cjj31_0p_ctu8_0p_ctd8_0p_ctj8_0p_cQu8_0p_cQd8_0p_ctu1_0p_ctd1_0p_ctj1_1p_cQu1_1p_cQd1_0p'> +6.1139206e+01 </wgt>
<wgt id='ctGRe_0p_cQj18_0p_cQj38_0p_cQj11_0p_cjj31_0p_ctu8_0p_ctd8_0p_ctj8_0p_cQu8_0p_cQd8_0p_ctu1_0p_ctd1_0p_ctj1_1p_cQu1_0p_cQd1_1p'> +6.1139206e+01 </wgt>
<wgt id='ctGRe_0p_cQj18_0p_cQj38_0p_cQj11_0p_cjj31_0p_ctu8_0p_ctd8_0p_ctj8_0p_cQu8_0p_cQd8_0p_ctu1_0p_ctd1_0p_ctj1_0p_cQu1_2p_cQd1_0p'> +6.1139206e+01 </wgt>
<wgt id='ctGRe_0p_cQj18_0p_cQj38_0p_cQj11_0p_cjj31_0p_ctu8_0p_ctd8_0p_ctj8_0p_cQu8_0p_cQd8_0p_ctu1_0p_ctd1_0p_ctj1_0p_cQu1_1p_cQd1_1p'> +6.1139206e+01 </wgt>
<wgt id='ctGRe_0p_cQj18_0p_cQj38_0p_cQj11_0p_cjj31_0p_ctu8_0p_ctd8_0p_ctj8_0p_cQu8_0p_cQd8_0p_ctu1_0p_ctd1_0p_ctj1_0p_cQu1_0p_cQd1_2p'> +6.1139206e+01 </wgt>
<wgt id='1001'> +6.1139206e+01 </wgt>
<wgt id='1002'> +5.3415867e+01 </wgt>
<wgt id='1003'> +5.3396435e+01 </wgt>
<wgt id='1004'> +6.9114877e+01 </wgt>
<wgt id='1005'> +4.2518465e+01 </wgt>
<wgt id='1006'> +5.1152065e+01 </wgt>
<wgt id='1007'> +4.5066338e+01 </wgt>
<wgt id='1008'> +4.5050926e+01 </wgt>
<wgt id='1009'> +5.7357993e+01 </wgt>
<wgt id='1010'> +3.6345153e+01 </wgt>
<wgt id='1011'> +7.4428499e+01 </wgt>
<wgt id='1012'> +6.4366438e+01 </wgt>
<wgt id='1013'> +6.4341304e+01 </wgt>
<wgt id='1014'> +8.4978227e+01 </wgt>
<wgt id='1015'> +5.0437163e+01 </wgt>
<wgt id='1016'> +5.6925918e+01 </wgt>
<wgt id='1017'> +4.9757017e+01 </wgt>
<wgt id='1018'> +4.9738977e+01 </wgt>
<wgt id='1019'> +6.4341304e+01 </wgt>
<wgt id='1020'> +3.9652982e+01 </wgt>
<wgt id='1021'> +4.7627021e+01 </wgt>
<wgt id='1022'> +4.1979409e+01 </wgt>
<wgt id='1023'> +4.1965104e+01 </wgt>
<wgt id='1024'> +5.3396435e+01 </wgt>
<wgt id='1025'> +3.3895714e+01 </wgt>
<wgt id='1026'> +6.9299406e+01 </wgt>
<wgt id='1027'> +5.9957502e+01 </wgt>
<wgt id='1028'> +5.9934163e+01 </wgt>
<wgt id='1029'> +7.9109017e+01 </wgt>
<wgt id='1030'> +4.7038010e+01 </wgt>
<wgt id='1031'> +6.5655012e+01 </wgt>
<wgt id='1032'> +5.7378865e+01 </wgt>
<wgt id='1033'> +5.7357993e+01 </wgt>
<wgt id='1034'> +7.4170569e+01 </wgt>
<wgt id='1035'> +4.5647123e+01 </wgt>
<wgt id='1036'> +5.4930210e+01 </wgt>
<wgt id='1037'> +4.8409872e+01 </wgt>
<wgt id='1038'> +4.8393318e+01 </wgt>
<wgt id='1039'> +6.1553680e+01 </wgt>
<wgt id='1040'> +3.9019558e+01 </wgt>
<wgt id='1041'> +7.9925865e+01 </wgt>
<wgt id='1042'> +6.9141874e+01 </wgt>
<wgt id='1043'> +6.9114877e+01 </wgt>
<wgt id='1044'> +9.1194310e+01 </wgt>
<wgt id='1045'> +5.4148507e+01 </wgt>
<wgt id='1046'> +6.1139206e+01 </wgt>
<wgt id='1047'> +6.1139206e+01 </wgt>
<wgt id='1048'> +6.1139206e+01 </wgt>
<wgt id='1049'> +6.1028045e+01 </wgt>
<wgt id='1050'> +6.1003147e+01 </wgt>
<wgt id='1051'> +6.1191830e+01 </wgt>
<wgt id='1052'> +6.1292463e+01 </wgt>
<wgt id='1053'> +6.1052773e+01 </wgt>
<wgt id='1054'> +6.1274446e+01 </wgt>
<wgt id='1055'> +6.1200135e+01 </wgt>
<wgt id='1056'> +6.1214549e+01 </wgt>
<wgt id='1057'> +6.1169674e+01 </wgt>
<wgt id='1058'> +6.1077981e+01 </wgt>
<wgt id='1059'> +6.1100718e+01 </wgt>
<wgt id='1060'> +6.1274210e+01 </wgt>
<wgt id='1061'> +6.1212485e+01 </wgt>
<wgt id='1062'> +6.1224419e+01 </wgt>
<wgt id='1063'> +6.1172511e+01 </wgt>
<wgt id='1064'> +6.1253366e+01 </wgt>
<wgt id='1065'> +6.1224413e+01 </wgt>
<wgt id='1066'> +6.1171466e+01 </wgt>
<wgt id='1067'> +6.0777693e+01 </wgt>
<wgt id='1068'> +6.1150026e+01 </wgt>
<wgt id='1069'> +6.1137600e+01 </wgt>
<wgt id='1070'> +6.1135758e+01 </wgt>
<wgt id='1071'> +6.1404972e+01 </wgt>
<wgt id='1072'> +6.0866887e+01 </wgt>
<wgt id='1073'> +6.1179042e+01 </wgt>
<wgt id='1074'> +6.1040942e+01 </wgt>
<wgt id='1075'> +6.1138339e+01 </wgt>
<wgt id='1076'> +6.1234427e+01 </wgt>
<wgt id='1077'> +6.1015358e+01 </wgt>
<wgt id='1078'> +6.1194786e+01 </wgt>
<wgt id='1079'> +6.0853411e+01 </wgt>
<wgt id='1080'> +6.1080915e+01 </wgt>
<wgt id='1081'> +6.1057240e+01 </wgt>
<wgt id='1082'> +6.0950043e+01 </wgt>
<wgt id='1083'> +6.1196252e+01 </wgt>
<wgt id='1084'> +6.1274674e+01 </wgt>
<wgt id='1085'> +6.1092948e+01 </wgt>
<wgt id='1086'> +6.1056618e+01 </wgt>
<wgt id='1087'> +6.1088022e+01 </wgt>
<wgt id='1088'> +6.1084112e+01 </wgt>
<wgt id='1089'> +6.1080687e+01 </wgt>
<wgt id='1090'> +6.1228630e+01 </wgt>
<wgt id='1091'> +6.1105497e+01 </wgt>
<wgt id='1092'> +6.1192514e+01 </wgt>
<wgt id='1093'> +6.1138948e+01 </wgt>
<wgt id='1094'> +6.1116020e+01 </wgt>
<wgt id='1095'> +6.1135882e+01 </wgt>
<wgt id='1096'> +6.1130285e+01 </wgt>
<wgt id='1097'> +6.1086270e+01 </wgt>
<wgt id='1098'> +6.1094899e+01 </wgt>
<wgt id='1099'> +6.1115766e+01 </wgt>
<wgt id='1100'> +6.1215404e+01 </wgt>
<wgt id='1101'> +6.1133313e+01 </wgt>
<wgt id='1102'> +6.1130088e+01 </wgt>
<wgt id='1103'> +6.1125495e+01 </wgt>
<wgt id='1104'> +6.1087684e+01 </wgt>
<wgt id='1105'> +6.1163046e+01 </wgt>
<wgt id='1106'> +6.1172811e+01 </wgt>
<wgt id='1107'> +6.1133632e+01 </wgt>
<wgt id='1108'> +6.1130529e+01 </wgt>
<wgt id='1109'> +6.1116992e+01 </wgt>
<wgt id='1110'> +6.1194800e+01 </wgt>
<wgt id='1111'> +6.1151239e+01 </wgt>
<wgt id='1112'> +6.1144057e+01 </wgt>
<wgt id='1113'> +6.1192821e+01 </wgt>
<wgt id='1114'> +6.1117439e+01 </wgt>
<wgt id='1115'> +6.1139899e+01 </wgt>
<wgt id='1116'> +6.1166727e+01 </wgt>
<wgt id='1117'> +6.1137817e+01 </wgt>
<wgt id='1118'> +6.1149115e+01 </wgt>
<wgt id='1119'> +6.1131259e+01 </wgt>
<wgt id='1120'> +6.1129847e+01 </wgt>
<wgt id='1121'> +6.1154233e+01 </wgt>
<wgt id='1122'> +6.1121800e+01 </wgt>
<wgt id='1123'> +6.1128331e+01 </wgt>
<wgt id='1124'> +6.1119235e+01 </wgt>
<wgt id='1125'> +6.1179757e+01 </wgt>
<wgt id='1126'> +6.1147476e+01 </wgt>
<wgt id='1127'> +6.1123837e+01 </wgt>
<wgt id='1128'> +6.1151479e+01 </wgt>
<wgt id='1129'> +6.1132331e+01 </wgt>
<wgt id='1130'> +6.1148924e+01 </wgt>
<wgt id='1131'> +6.1169604e+01 </wgt>
<wgt id='1132'> +6.1138407e+01 </wgt>
<wgt id='1133'> +6.1144086e+01 </wgt>
<wgt id='1134'> +6.1128668e+01 </wgt>
<wgt id='1135'> +6.1147221e+01 </wgt>
<wgt id='1136'> +6.1135746e+01 </wgt>
<wgt id='1137'> +6.1128430e+01 </wgt>
<wgt id='1138'> +6.1152620e+01 </wgt>
<wgt id='1139'> +6.1142488e+01 </wgt>
<wgt id='1140'> +6.1165090e+01 </wgt>
<wgt id='1141'> +6.1124523e+01 </wgt>
<wgt id='1142'> +6.1141874e+01 </wgt>
<wgt id='1143'> +6.1156335e+01 </wgt>
<wgt id='1144'> +6.1129238e+01 </wgt>
<wgt id='1145'> +6.1150540e+01 </wgt>
<wgt id='1146'> +6.1135891e+01 </wgt>
<wgt id='1147'> +6.1147580e+01 </wgt>
<wgt id='1148'> +6.1139206e+01 </wgt>
<wgt id='1149'> +6.0039498e+01 </wgt>
<wgt id='1150'> +6.2551450e+01 </wgt>
<wgt id='1151'> +6.1139206e+01 </wgt>
<wgt id='1152'> +6.0824771e+01 </wgt>
<wgt id='1153'> +6.0648592e+01 </wgt>
<wgt id='1154'> +6.1543418e+01 </wgt>
<wgt id='1155'> +6.2020702e+01 </wgt>
<wgt id='1156'> +6.1939406e+01 </wgt>
<wgt id='1157'> +6.1852289e+01 </wgt>
<wgt id='1158'> +6.0027943e+01 </wgt>
<wgt id='1159'> +6.0269729e+01 </wgt>
<wgt id='1160'> +6.1088307e+01 </wgt>
<wgt id='1161'> +6.3021846e+01 </wgt>
<wgt id='1162'> +6.1152008e+01 </wgt>
<wgt id='1163'> +6.0962173e+01 </wgt>
<wgt id='1164'> +5.9774702e+01 </wgt>
<wgt id='1165'> +6.0960811e+01 </wgt>
<wgt id='1166'> +6.0321392e+01 </wgt>
<wgt id='1167'> +6.1576958e+01 </wgt>
<wgt id='1168'> +6.2191449e+01 </wgt>
<wgt id='1169'> +6.0561999e+01 </wgt>
<wgt id='1170'> +6.0333185e+01 </wgt>
<wgt id='1171'> +6.0766768e+01 </wgt>
<wgt id='1172'> +5.9274589e+01 </wgt>
<wgt id='1173'> +5.9849396e+01 </wgt>
<wgt id='1174'> +6.0255940e+01 </wgt>
<wgt id='1175'> +6.1174015e+01 </wgt>
<wgt id='1176'> +6.0363536e+01 </wgt>
<wgt id='1177'> +6.0215299e+01 </wgt>
<wgt id='1178'> +6.1282646e+01 </wgt>
<wgt id='1179'> +6.0253869e+01 </wgt>
<wgt id='1180'> +6.1822967e+01 </wgt>
<wgt id='1181'> +6.1458432e+01 </wgt>
<wgt id='1182'> +6.0796761e+01 </wgt>
<wgt id='1183'> +6.0171136e+01 </wgt>
<wgt id='1184'> +6.0705086e+01 </wgt>
<wgt id='1185'> +6.2283428e+01 </wgt>
<wgt id='1186'> +6.0445463e+01 </wgt>
<wgt id='1187'> +6.0147510e+01 </wgt>
<wgt id='1188'> +5.9560327e+01 </wgt>
<wgt id='1189'> +6.1287459e+01 </wgt>
<wgt id='1190'> +6.0061603e+01 </wgt>
<wgt id='1191'> +6.1462697e+01 </wgt>
<wgt id='1192'> +6.1801754e+01 </wgt>
<wgt id='1193'> +6.1777455e+01 </wgt>
<wgt id='1194'> +6.2126750e+01 </wgt>
<wgt id='1195'> +6.2140956e+01 </wgt>
<wgt id='1196'> +6.1705130e+01 </wgt>
<wgt id='1197'> +6.1467757e+01 </wgt>
<wgt id='1198'> +6.0715829e+01 </wgt>
<wgt id='1199'> +6.1461517e+01 </wgt>
<wgt id='1200'> +6.0229482e+01 </wgt>
<wgt id='1201'> +6.0926765e+01 </wgt>
<wgt id='1202'> +6.0636425e+01 </wgt>
<wgt id='1203'> +6.0108295e+01 </wgt>
<wgt id='1204'> +6.1809893e+01 </wgt>
<wgt id='1205'> +6.0036499e+01 </wgt>
<wgt id='1206'> +6.1234014e+01 </wgt>
<wgt id='1207'> +6.1181928e+01 </wgt>
<wgt id='1208'> +6.0052704e+01 </wgt>
<wgt id='1209'> +6.1603193e+01 </wgt>
<wgt id='1210'> +6.1459722e+01 </wgt>
<wgt id='1211'> +6.0459684e+01 </wgt>
<wgt id='1212'> +6.0579024e+01 </wgt>
<wgt id='1213'> +6.1151077e+01 </wgt>
<wgt id='1214'> +6.0680674e+01 </wgt>
<wgt id='1215'> +6.2127404e+01 </wgt>
<wgt id='1216'> +6.0099370e+01 </wgt>
<wgt id='1217'> +6.2405996e+01 </wgt>
<wgt id='1218'> +6.0571001e+01 </wgt>
<wgt id='1219'> +6.0966438e+01 </wgt>
<wgt id='1220'> +6.1057009e+01 </wgt>
<wgt id='1221'> +6.1406530e+01 </wgt>
<wgt id='1222'> +6.1321467e+01 </wgt>
<wgt id='1223'> +6.0800548e+01 </wgt>
<wgt id='1224'> +6.1566971e+01 </wgt>
<wgt id='1225'> +6.0956450e+01 </wgt>
<wgt id='1226'> +6.1812693e+01 </wgt>
<wgt id='1227'> +6.2570847e+01 </wgt>
<wgt id='1228'> +6.1746793e+01 </wgt>
<wgt id='1229'> +5.9949800e+01 </wgt>
<wgt id='1230'> +6.1105489e+01 </wgt>
<wgt id='1231'> +6.2706955e+01 </wgt>
<wgt id='1232'> +6.1499333e+01 </wgt>
<wgt id='1233'> +6.1576958e+01 </wgt>
<wgt id='1234'> +6.1735046e+01 </wgt>
<wgt id='1235'> +6.0889239e+01 </wgt>
<wgt id='1236'> +6.0478820e+01 </wgt>
<wgt id='1237'> +6.1965458e+01 </wgt>
<wgt id='1238'> +6.0837037e+01 </wgt>
<wgt id='1239'> +6.2130393e+01 </wgt>
<wgt id='1240'> +6.3675338e+01 </wgt>
<wgt id='1241'> +6.1852208e+01 </wgt>
<wgt id='1242'> +6.1288447e+01 </wgt>
<wgt id='1243'> +6.1817041e+01 </wgt>
<wgt id='1244'> +6.1568964e+01 </wgt>
<wgt id='1245'> +6.1791373e+01 </wgt>
<wgt id='1246'> +6.0470136e+01 </wgt>
<wgt id='1247'> +6.0810310e+01 </wgt>
<wgt id='1248'> +6.3003518e+01 </wgt>
<wgt id='1249'> +6.1771412e+01 </wgt>
<wgt id='1250'> +6.0374711e+01 </wgt>
<wgt id='1251'> +6.0777685e+01 </wgt>
<wgt id='1252'> +6.1189009e+01 </wgt>
<wgt id='1253'> +6.1150461e+01 </wgt>
<wgt id='1254'> +6.1267202e+01 </wgt>
<wgt id='1255'> +6.1205087e+01 </wgt>
<wgt id='1256'> +6.1353091e+01 </wgt>
<wgt id='1257'> +6.1161929e+01 </wgt>
<wgt id='1258'> +6.1025002e+01 </wgt>
<wgt id='1259'> +6.1144175e+01 </wgt>
<wgt id='1260'> +6.1087453e+01 </wgt>
<wgt id='1261'> +6.1276415e+01 </wgt>
<wgt id='1262'> +6.1147098e+01 </wgt>
<wgt id='1263'> +6.1056264e+01 </wgt>
<wgt id='1264'> +6.1187194e+01 </wgt>
<wgt id='1265'> +6.1118370e+01 </wgt>
<wgt id='1266'> +6.1157792e+01 </wgt>
<wgt id='1267'> +6.1173639e+01 </wgt>
<wgt id='1268'> +6.1206359e+01 </wgt>
<wgt id='1269'> +6.1133730e+01 </wgt>
<wgt id='1270'> +6.1127601e+01 </wgt>
<wgt id='1271'> +6.1208168e+01 </wgt>
<wgt id='1272'> +6.1099868e+01 </wgt>
<wgt id='1273'> +6.1243652e+01 </wgt>
<wgt id='1274'> +6.1005664e+01 </wgt>
<wgt id='1275'> +6.1237856e+01 </wgt>
<wgt id='1276'> +6.1065799e+01 </wgt>
<wgt id='1277'> +6.0993579e+01 </wgt>
<wgt id='1278'> +6.1177585e+01 </wgt>
<wgt id='1279'> +6.1077795e+01 </wgt>
<wgt id='1280'> +6.1165563e+01 </wgt>
<wgt id='1281'> +6.1687328e+01 </wgt>
<wgt id='1282'> +6.1263717e+01 </wgt>
<wgt id='1283'> +6.1178589e+01 </wgt>
<wgt id='1284'> +6.1362623e+01 </wgt>
<wgt id='1285'> +6.1283796e+01 </wgt>
<wgt id='1286'> +6.1172040e+01 </wgt>
<wgt id='1287'> +6.1105068e+01 </wgt>
<wgt id='1288'> +6.1065730e+01 </wgt>
<wgt id='1289'> +6.1253094e+01 </wgt>
<wgt id='1290'> +6.1173030e+01 </wgt>
<wgt id='1291'> +6.1221885e+01 </wgt>
<wgt id='1292'> +6.1153736e+01 </wgt>
<wgt id='1293'> +6.1065940e+01 </wgt>
<wgt id='1294'> +6.0958438e+01 </wgt>
<wgt id='1295'> +6.1279793e+01 </wgt>
<wgt id='1296'> +6.1279035e+01 </wgt>
<wgt id='1297'> +6.1144980e+01 </wgt>
<wgt id='1298'> +6.1332839e+01 </wgt>
<wgt id='1299'> +6.1304761e+01 </wgt>
<wgt id='1300'> +6.1127875e+01 </wgt>
<wgt id='1301'> +6.1178753e+01 </wgt>
<wgt id='1302'> +6.1286745e+01 </wgt>
<wgt id='1303'> +6.1249672e+01 </wgt>
<wgt id='1304'> +6.1120303e+01 </wgt>
<wgt id='1305'> +6.1179643e+01 </wgt>
<wgt id='1306'> +6.1221579e+01 </wgt>
<wgt id='1307'> +6.1230722e+01 </wgt>
<wgt id='1308'> +6.1190457e+01 </wgt>
<wgt id='1309'> +6.1137416e+01 </wgt>
<wgt id='1310'> +6.1203894e+01 </wgt>
<wgt id='1311'> +6.1181695e+01 </wgt>
<wgt id='1312'> +6.1228286e+01 </wgt>
<wgt id='1313'> +6.1168258e+01 </wgt>
<wgt id='1314'> +6.1168368e+01 </wgt>
<wgt id='1315'> +6.1181961e+01 </wgt>
<wgt id='1316'> +6.1144306e+01 </wgt>
<wgt id='1317'> +6.1181272e+01 </wgt>
<wgt id='1318'> +6.1159984e+01 </wgt>
<wgt id='1319'> +6.1196179e+01 </wgt>
<wgt id='1320'> +6.1215943e+01 </wgt>
<wgt id='1321'> +6.1206143e+01 </wgt>
<wgt id='1322'> +6.1177082e+01 </wgt>
<wgt id='1323'> +6.1135297e+01 </wgt>
<wgt id='1324'> +6.1192613e+01 </wgt>
<wgt id='1325'> +6.1178420e+01 </wgt>
<wgt id='1326'> +6.1174730e+01 </wgt>
<wgt id='1327'> +6.1170028e+01 </wgt>
<wgt id='1328'> +6.1202320e+01 </wgt>
<wgt id='1329'> +6.1153042e+01 </wgt>
<wgt id='1330'> +6.1199890e+01 </wgt>
<wgt id='1331'> +6.1202023e+01 </wgt>
<wgt id='1332'> +6.1191715e+01 </wgt>
<wgt id='1333'> +6.1210476e+01 </wgt>
<wgt id='1334'> +6.1208587e+01 </wgt>
<wgt id='1335'> +6.1179869e+01 </wgt>
<wgt id='1336'> +6.1190360e+01 </wgt>
<wgt id='1337'> +6.1186607e+01 </wgt>
<wgt id='1338'> +6.1179898e+01 </wgt>
<wgt id='1339'> +6.1175776e+01 </wgt>
<wgt id='1340'> +6.1197746e+01 </wgt>
<wgt id='1341'> +6.1184795e+01 </wgt>
<wgt id='1342'> +6.1180458e+01 </wgt>
<wgt id='1343'> +6.1184654e+01 </wgt>
<wgt id='1344'> +6.1180597e+01 </wgt>
<wgt id='1345'> +6.1190705e+01 </wgt>
<wgt id='1346'> +6.1189510e+01 </wgt>
<wgt id='1347'> +6.1198412e+01 </wgt>
<wgt id='1348'> +6.1180437e+01 </wgt>
<wgt id='1349'> +6.1208130e+01 </wgt>
<wgt id='1350'> +6.1186506e+01 </wgt>
<wgt id='1351'> +6.1185828e+01 </wgt>
<wgt id='1352'> +6.1188867e+01 </wgt>
<wgt id='1353'> +6.0039498e+01 </wgt>
<wgt id='1354'> +6.2551450e+01 </wgt>
<wgt id='1355'> +5.4812128e+01 </wgt>
<wgt id='1356'> +5.6171287e+01 </wgt>
<wgt id='1357'> +5.7416617e+01 </wgt>
<wgt id='1358'> +5.8486597e+01 </wgt>
<wgt id='1359'> +6.0596907e+01 </wgt>
<wgt id='1360'> +6.2008374e+01 </wgt>
<wgt id='1361'> +6.3792631e+01 </wgt>
<wgt id='1362'> +6.5121762e+01 </wgt>
<wgt id='1363'> +6.2740065e+01 </wgt>
<wgt id='1364'> +6.2839885e+01 </wgt>
<wgt id='1365'> +6.2670453e+01 </wgt>
<wgt id='1366'> +6.2714992e+01 </wgt>
<wgt id='1367'> +6.2925637e+01 </wgt>
<wgt id='1368'> +6.2773771e+01 </wgt>
<wgt id='1369'> +6.2714411e+01 </wgt>
<wgt id='1370'> +6.2786359e+01 </wgt>
<wgt id='1371'> +6.2698124e+01 </wgt>
<wgt id='1372'> +6.2824900e+01 </wgt>
<wgt id='1373'> +6.2601085e+01 </wgt>
<wgt id='1374'> +6.2657866e+01 </wgt>
<wgt id='1375'> +6.2816448e+01 </wgt>
<wgt id='1376'> +6.2750013e+01 </wgt>
<wgt id='1377'> +6.2741620e+01 </wgt>
<wgt id='1378'> +6.2669183e+01 </wgt>
<wgt id='1379'> +6.2786986e+01 </wgt>
<wgt id='1380'> +6.2744596e+01 </wgt>
<wgt id='1381'> +6.2764780e+01 </wgt>
<wgt id='1382'> +6.2768822e+01 </wgt>
<wgt id='1383'> +6.2850973e+01 </wgt>
<wgt id='1384'> +6.2837509e+01 </wgt>
<wgt id='1385'> +6.2721753e+01 </wgt>
<wgt id='1386'> +6.2739455e+01 </wgt>
<wgt id='1387'> +6.2796941e+01 </wgt>
<wgt id='1388'> +6.2795500e+01 </wgt>
<wgt id='1389'> +6.2589484e+01 </wgt>
<wgt id='1390'> +6.2800913e+01 </wgt>
<wgt id='1391'> +6.2787054e+01 </wgt>
<wgt id='1392'> +6.2614085e+01 </wgt>
<wgt id='1393'> +6.3110721e+01 </wgt>
<wgt id='1394'> +6.2916921e+01 </wgt>
<wgt id='1395'> +6.2579130e+01 </wgt>
<wgt id='1396'> +6.2635672e+01 </wgt>
<wgt id='1397'> +6.2683621e+01 </wgt>
<wgt id='1398'> +6.2726154e+01 </wgt>
<wgt id='1399'> +6.2830666e+01 </wgt>
<wgt id='1400'> +6.2838734e+01 </wgt>
<wgt id='1401'> +6.2762233e+01 </wgt>
<wgt id='1402'> +6.2939849e+01 </wgt>
<wgt id='1403'> +6.2791670e+01 </wgt>
<wgt id='1404'> +6.2725431e+01 </wgt>
<wgt id='1405'> +6.2556356e+01 </wgt>
<wgt id='1406'> +6.2542688e+01 </wgt>
<wgt id='1407'> +6.2875868e+01 </wgt>
<wgt id='1408'> +6.2845406e+01 </wgt>
<wgt id='1409'> +6.2860894e+01 </wgt>
<wgt id='1410'> +6.2698661e+01 </wgt>
<wgt id='1411'> +6.2840930e+01 </wgt>
<wgt id='1412'> +6.2693628e+01 </wgt>
<wgt id='1413'> +6.2651608e+01 </wgt>
<wgt id='1414'> +6.2924479e+01 </wgt>
<wgt id='1415'> +6.2701936e+01 </wgt>
<wgt id='1416'> +6.2682982e+01 </wgt>
<wgt id='1417'> +6.2731475e+01 </wgt>
<wgt id='1418'> +6.2776923e+01 </wgt>
<wgt id='1419'> +6.2744105e+01 </wgt>
<wgt id='1420'> +6.2702674e+01 </wgt>
<wgt id='1421'> +6.2727672e+01 </wgt>
<wgt id='1422'> +6.2711375e+01 </wgt>
<wgt id='1423'> +6.2756629e+01 </wgt>
<wgt id='1424'> +6.2718891e+01 </wgt>
<wgt id='1425'> +6.2740382e+01 </wgt>
<wgt id='1426'> +6.2764626e+01 </wgt>
<wgt id='1427'> +6.2735708e+01 </wgt>
<wgt id='1428'> +6.2735100e+01 </wgt>
<wgt id='1429'> +6.2750472e+01 </wgt>
<wgt id='1430'> +6.2717049e+01 </wgt>
<wgt id='1431'> +6.2740303e+01 </wgt>
<wgt id='1432'> +6.2709795e+01 </wgt>
<wgt id='1433'> +6.2729988e+01 </wgt>
<wgt id='1434'> +6.2747531e+01 </wgt>
<wgt id='1435'> +6.2742107e+01 </wgt>
<wgt id='1436'> +6.2711861e+01 </wgt>
<wgt id='1437'> +6.2819618e+01 </wgt>
<wgt id='1438'> +6.2738212e+01 </wgt>
<wgt id='1439'> +6.2756842e+01 </wgt>
<wgt id='1440'> +6.2754876e+01 </wgt>
<wgt id='1441'> +6.2765980e+01 </wgt>
<wgt id='1442'> +6.2709988e+01 </wgt>
<wgt id='1443'> +6.2706761e+01 </wgt>
<wgt id='1444'> +6.2726723e+01 </wgt>
<wgt id='1445'> +6.2711239e+01 </wgt>
<wgt id='1446'> +6.2758793e+01 </wgt>
<wgt id='1447'> +6.2742124e+01 </wgt>
<wgt id='1448'> +6.2750287e+01 </wgt>
<wgt id='1449'> +6.2728813e+01 </wgt>
<wgt id='1450'> +6.2723644e+01 </wgt>
<wgt id='1451'> +6.2732188e+01 </wgt>
<wgt id='1452'> +6.2743541e+01 </wgt>
<wgt id='1453'> +6.2727431e+01 </wgt>
<wgt id='1454'> +6.2729942e+01 </wgt>
<wgt id='1455'> +6.2746715e+01 </wgt>
<wgt id='1456'> +6.2755337e+01 </wgt>
<wgt id='1457'> +6.2753885e+01 </wgt>
<wgt id='1458'> +6.2743454e+01 </wgt>
<wgt id='1459'> +6.2728654e+01 </wgt>
<wgt id='1460'> +6.2724461e+01 </wgt>
<wgt id='1461'> +6.2742558e+01 </wgt>
<wgt id='1462'> +6.2752580e+01 </wgt>
<wgt id='1463'> +6.2749073e+01 </wgt>
<wgt id='1464'> +6.1519106e+01 </wgt>
<wgt id='1465'> +6.4067818e+01 </wgt>
<wgt id='1466'> +6.2642388e+01 </wgt>
<wgt id='1467'> +6.2760370e+01 </wgt>
<wgt id='1468'> +6.2886261e+01 </wgt>
<wgt id='1469'> +6.2659590e+01 </wgt>
<wgt id='1470'> +6.2662905e+01 </wgt>
<wgt id='1471'> +6.2306039e+01 </wgt>
<wgt id='1472'> +6.1621986e+01 </wgt>
<wgt id='1473'> +6.2184037e+01 </wgt>
<wgt id='1474'> +6.3034614e+01 </wgt>
<wgt id='1475'> +6.2179941e+01 </wgt>
<wgt id='1476'> +6.2706938e+01 </wgt>
<wgt id='1477'> +6.3167886e+01 </wgt>
<wgt id='1478'> +6.2260115e+01 </wgt>
<wgt id='1479'> +6.4192187e+01 </wgt>
<wgt id='1480'> +6.2524692e+01 </wgt>
<wgt id='1481'> +6.2308584e+01 </wgt>
<wgt id='1482'> +6.3553349e+01 </wgt>
<wgt id='1483'> +6.1666708e+01 </wgt>
<wgt id='1484'> +6.3667052e+01 </wgt>
<wgt id='1485'> +6.2972972e+01 </wgt>
<wgt id='1486'> +6.2267094e+01 </wgt>
<wgt id='1487'> +6.2331191e+01 </wgt>
<wgt id='1488'> +6.2837650e+01 </wgt>
<wgt id='1489'> +6.2280814e+01 </wgt>
<wgt id='1490'> +6.3047207e+01 </wgt>
<wgt id='1491'> +6.2997915e+01 </wgt>
<wgt id='1492'> +6.2349827e+01 </wgt>
<wgt id='1493'> +6.2604415e+01 </wgt>
<wgt id='1494'> +6.2698256e+01 </wgt>
<wgt id='1495'> +6.3016684e+01 </wgt>
<wgt id='1496'> +6.2405477e+01 </wgt>
<wgt id='1497'> +6.2613529e+01 </wgt>
<wgt id='1498'> +6.2683131e+01 </wgt>
<wgt id='1499'> +6.2428153e+01 </wgt>
<wgt id='1500'> +6.2862371e+01 </wgt>
<wgt id='1501'> +6.3073301e+01 </wgt>
<wgt id='1502'> +6.2228897e+01 </wgt>
<wgt id='1503'> +6.1129666e+01 </wgt>
<wgt id='1504'> +6.4372943e+01 </wgt>
<wgt id='1505'> +6.4052301e+01 </wgt>
<wgt id='1506'> +6.1885587e+01 </wgt>
<wgt id='1507'> +6.2859295e+01 </wgt>
<wgt id='1508'> +6.2620811e+01 </wgt>
<wgt id='1509'> +6.3134339e+01 </wgt>
<wgt id='1510'> +6.2947682e+01 </wgt>
<wgt id='1511'> +6.2295414e+01 </wgt>
<wgt id='1512'> +6.1557297e+01 </wgt>
<wgt id='1513'> +6.2051475e+01 </wgt>
<wgt id='1514'> +6.2307410e+01 </wgt>
<wgt id='1515'> +6.2641640e+01 </wgt>
<wgt id='1516'> +6.2532634e+01 </wgt>
<wgt id='1517'> +6.2630638e+01 </wgt>
<wgt id='1518'> +6.2525206e+01 </wgt>
<wgt id='1519'> +6.0832937e+01 </wgt>
<wgt id='1520'> +6.2039659e+01 </wgt>
<wgt id='1521'> +6.2166409e+01 </wgt>
<wgt id='1522'> +6.3552791e+01 </wgt>
<wgt id='1523'> +6.1156137e+01 </wgt>
<wgt id='1524'> +6.4213874e+01 </wgt>
<wgt id='1525'> +6.1964308e+01 </wgt>
<wgt id='1526'> +6.1821052e+01 </wgt>
<wgt id='1527'> +6.2004769e+01 </wgt>
<wgt id='1528'> +6.0974958e+01 </wgt>
<wgt id='1529'> +6.1624480e+01 </wgt>
<wgt id='1530'> +6.1851871e+01 </wgt>
<wgt id='1531'> +6.2078553e+01 </wgt>
<wgt id='1532'> +6.1749248e+01 </wgt>
<wgt id='1533'> +6.1550060e+01 </wgt>
<wgt id='1534'> +6.2318271e+01 </wgt>
<wgt id='1535'> +6.2005418e+01 </wgt>
<wgt id='1536'> +6.2844109e+01 </wgt>
<wgt id='1537'> +6.1246720e+01 </wgt>
<wgt id='1538'> +6.2384284e+01 </wgt>
<wgt id='1539'> +6.1882531e+01 </wgt>
<wgt id='1540'> +6.3335788e+01 </wgt>
<wgt id='1541'> +6.1038041e+01 </wgt>
<wgt id='1542'> +6.0825267e+01 </wgt>
<wgt id='1543'> +6.3317419e+01 </wgt>
<wgt id='1544'> +6.2026464e+01 </wgt>
<wgt id='1545'> +6.1892118e+01 </wgt>
<wgt id='1546'> +6.2067790e+01 </wgt>
<wgt id='1547'> +6.1769332e+01 </wgt>
<wgt id='1548'> +6.2150553e+01 </wgt>
<wgt id='1549'> +6.1780506e+01 </wgt>
<wgt id='1550'> +6.3084663e+01 </wgt>
<wgt id='1551'> +6.0886680e+01 </wgt>
<wgt id='1552'> +6.2278906e+01 </wgt>
<wgt id='1553'> +6.1536155e+01 </wgt>
<wgt id='1554'> +6.2217743e+01 </wgt>
<wgt id='1555'> +6.1879584e+01 </wgt>
<wgt id='1556'> +6.2123886e+01 </wgt>
<wgt id='1557'> +6.1758533e+01 </wgt>
<wgt id='1558'> +6.1649383e+01 </wgt>
<wgt id='1559'> +6.2658822e+01 </wgt>
<wgt id='1560'> +6.0727281e+01 </wgt>
<wgt id='1561'> +6.3171299e+01 </wgt>
<wgt id='1562'> +6.1530960e+01 </wgt>
<wgt id='1563'> +6.2632177e+01 </wgt>
<wgt id='1564'> +6.1751460e+01 </wgt>
<wgt id='1565'> +6.2278014e+01 </wgt>
<wgt id='1566'> +6.1651780e+01 </wgt>
<wgt id='1567'> +6.2248552e+01 </wgt>
<wgt id='1568'> +6.1140645e+01 </wgt>
<wgt id='1569'> +6.2954944e+01 </wgt>
<wgt id='1570'> +6.2796799e+01 </wgt>
<wgt id='1571'> +6.1956806e+01 </wgt>
<wgt id='1572'> +6.1920514e+01 </wgt>
<wgt id='1573'> +6.1412538e+01 </wgt>
<wgt id='1574'> +6.1481977e+01 </wgt>
<wgt id='1575'> +6.1997927e+01 </wgt>
<wgt id='1576'> +6.2207892e+01 </wgt>
<wgt id='1577'> +6.2030034e+01 </wgt>
<wgt id='1578'> +5.9808369e+01 </wgt>
<wgt id='1579'> +6.2686695e+01 </wgt>
<wgt id='1580'> +6.1565423e+01 </wgt>
<wgt id='1581'> +6.2682809e+01 </wgt>
<wgt id='1582'> +6.0661318e+01 </wgt>
<wgt id='1583'> +6.3382342e+01 </wgt>
<wgt id='1584'> +6.2036552e+01 </wgt>
<wgt id='1585'> +6.2696406e+01 </wgt>
<wgt id='1586'> +6.2730666e+01 </wgt>
<wgt id='1587'> +6.2659005e+01 </wgt>
<wgt id='1588'> +6.2753213e+01 </wgt>
<wgt id='1589'> +6.2657927e+01 </wgt>
<wgt id='1590'> +6.3048007e+01 </wgt>
<wgt id='1591'> +6.2370574e+01 </wgt>
<wgt id='1592'> +6.2486819e+01 </wgt>
<wgt id='1593'> +6.2932555e+01 </wgt>
<wgt id='1594'> +6.2768468e+01 </wgt>
<wgt id='1595'> +6.2624617e+01 </wgt>
<wgt id='1596'> +6.2750265e+01 </wgt>
<wgt id='1597'> +6.2577243e+01 </wgt>
<wgt id='1598'> +6.2676254e+01 </wgt>
<wgt id='1599'> +6.2731255e+01 </wgt>
<wgt id='1600'> +6.2623587e+01 </wgt>
<wgt id='1601'> +6.2737328e+01 </wgt>
<wgt id='1602'> +6.2450373e+01 </wgt>
<wgt id='1603'> +6.2984972e+01 </wgt>
<wgt id='1604'> +6.2712770e+01 </wgt>
<wgt id='1605'> +6.2681688e+01 </wgt>
<wgt id='1606'> +6.2566780e+01 </wgt>
<wgt id='1607'> +6.2867096e+01 </wgt>
<wgt id='1608'> +6.2321104e+01 </wgt>
<wgt id='1609'> +6.2945349e+01 </wgt>
<wgt id='1610'> +6.2960213e+01 </wgt>
<wgt id='1611'> +6.2432923e+01 </wgt>
<wgt id='1612'> +6.2718344e+01 </wgt>
<wgt id='1613'> +6.2676998e+01 </wgt>
<wgt id='1614'> +6.2391021e+01 </wgt>
<wgt id='1615'> +6.3070432e+01 </wgt>
<wgt id='1616'> +6.1894618e+01 </wgt>
<wgt id='1617'> +6.3610856e+01 </wgt>
<wgt id='1618'> +6.3034776e+01 </wgt>
<wgt id='1619'> +6.2368215e+01 </wgt>
<wgt id='1620'> +6.2830168e+01 </wgt>
<wgt id='1621'> +6.2366399e+01 </wgt>
<wgt id='1622'> +6.2749763e+01 </wgt>
<wgt id='1623'> +6.2668642e+01 </wgt>
<wgt id='1624'> +6.2509185e+01 </wgt>
<wgt id='1625'> +6.2910205e+01 </wgt>
<wgt id='1626'> +6.2141155e+01 </wgt>
<wgt id='1627'> +6.3329154e+01 </wgt>
<wgt id='1628'> +6.3201714e+01 </wgt>
<wgt id='1629'> +6.2451647e+01 </wgt>
<wgt id='1630'> +6.2596480e+01 </wgt>
<wgt id='1631'> +6.2945812e+01 </wgt>
<wgt id='1632'> +6.3060331e+01 </wgt>
<wgt id='1633'> +6.2259459e+01 </wgt>
<wgt id='1634'> +6.2811647e+01 </wgt>
<wgt id='1635'> +6.2641625e+01 </wgt>
<wgt id='1636'> +6.1696910e+01 </wgt>
<wgt id='1637'> +6.1671704e+01 </wgt>
<wgt id='1638'> +6.1729922e+01 </wgt>
<wgt id='1639'> +6.1904522e+01 </wgt>
<wgt id='1640'> +6.1490834e+01 </wgt>
<wgt id='1641'> +6.1869611e+01 </wgt>
<wgt id='1642'> +6.1627292e+01 </wgt>
<wgt id='1643'> +6.1665247e+01 </wgt>
<wgt id='1644'> +6.1728502e+01 </wgt>
<wgt id='1645'> +6.1751094e+01 </wgt>
<wgt id='1646'> +6.1645206e+01 </wgt>
<wgt id='1647'> +6.1519210e+01 </wgt>
<wgt id='1648'> +6.1774479e+01 </wgt>
<wgt id='1649'> +6.1684962e+01 </wgt>
<wgt id='1650'> +6.1712335e+01 </wgt>
<wgt id='1651'> +6.1680267e+01 </wgt>
<wgt id='1652'> +6.1714689e+01 </wgt>
<wgt id='1653'> +6.1660841e+01 </wgt>
<wgt id='1654'> +6.1716562e+01 </wgt>
<wgt id='1655'> +6.1703410e+01 </wgt>
<wgt id='1656'> +6.1687225e+01 </wgt>
<wgt id='1657'> +6.1617618e+01 </wgt>
<wgt id='1658'> +6.1752288e+01 </wgt>
<wgt id='1659'> +6.2124244e+01 </wgt>
<wgt id='1660'> +6.1292346e+01 </wgt>
<wgt id='1661'> +6.1842292e+01 </wgt>
<wgt id='1662'> +6.1330868e+01 </wgt>
<wgt id='1663'> +6.1693695e+01 </wgt>
<wgt id='1664'> +6.1639348e+01 </wgt>
<wgt id='1665'> +6.1974895e+01 </wgt>
<wgt id='1666'> +6.1021749e+01 </wgt>
<wgt id='1667'> +6.1349561e+01 </wgt>
<wgt id='1668'> +6.2417698e+01 </wgt>
<wgt id='1669'> +6.1814279e+01 </wgt>
<wgt id='1670'> +6.1461893e+01 </wgt>
<wgt id='1671'> +6.1201641e+01 </wgt>
<wgt id='1672'> +6.1912162e+01 </wgt>
<wgt id='1673'> +6.1675136e+01 </wgt>
<wgt id='1674'> +6.1706269e+01 </wgt>
<wgt id='1675'> +6.1437844e+01 </wgt>
<wgt id='1676'> +6.1895836e+01 </wgt>
<wgt id='1677'> +6.1937783e+01 </wgt>
<wgt id='1678'> +6.1310971e+01 </wgt>
<wgt id='1679'> +6.1756352e+01 </wgt>
<wgt id='1680'> +6.1356023e+01 </wgt>
<wgt id='1681'> +6.1067145e+01 </wgt>
<wgt id='1682'> +6.2117924e+01 </wgt>
<wgt id='1683'> +6.1976343e+01 </wgt>
<wgt id='1684'> +6.1569887e+01 </wgt>
<wgt id='1685'> +6.1529570e+01 </wgt>
<wgt id='1686'> +6.1770539e+01 </wgt>
<wgt id='1687'> +7.4518745e+01 </wgt>
<wgt id='1688'> +6.0722948e+01 </wgt>
<wgt id='1689'> +6.0718855e+01 </wgt>
<wgt id='1690'> +6.0740860e+01 </wgt>
<wgt id='1691'> +6.0723450e+01 </wgt>
<wgt id='1692'> +6.0721398e+01 </wgt>
<wgt id='1693'> +6.0616370e+01 </wgt>
<wgt id='1694'> +6.0799177e+01 </wgt>
<wgt id='1695'> +6.0864308e+01 </wgt>
<wgt id='1696'> +6.0855600e+01 </wgt>
<wgt id='1697'> +6.0972303e+01 </wgt>
<wgt id='1698'> +6.0648793e+01 </wgt>
<wgt id='1699'> +6.0743009e+01 </wgt>
<wgt id='1700'> +6.0489181e+01 </wgt>
<wgt id='1701'> +6.0595712e+01 </wgt>
<wgt id='1702'> +6.0888556e+01 </wgt>
<wgt id='1703'> +6.0687634e+01 </wgt>
<wgt id='1704'> +6.0797869e+01 </wgt>
<wgt id='1705'> +6.0794751e+01 </wgt>
<wgt id='1706'> +6.0917165e+01 </wgt>
<wgt id='1707'> +6.0691363e+01 </wgt>
<wgt id='1708'> +6.0817353e+01 </wgt>
<wgt id='1709'> +6.0636412e+01 </wgt>
<wgt id='1710'> +6.0893313e+01 </wgt>
<wgt id='1711'> +6.0575011e+01 </wgt>
<wgt id='1712'> +6.0402739e+01 </wgt>
<wgt id='1713'> +6.0542208e+01 </wgt>
<wgt id='1714'> +6.0761901e+01 </wgt>
<wgt id='1715'> +6.0808744e+01 </wgt>
<wgt id='1716'> +6.0752015e+01 </wgt>
<wgt id='1717'> +6.1216177e+01 </wgt>
<wgt id='1718'> +6.2910131e+01 </wgt>
<wgt id='1719'> +6.2411663e+01 </wgt>
<wgt id='1720'> +6.3219175e+01 </wgt>
<wgt id='1721'> +6.3110351e+01 </wgt>
<wgt id='1722'> +6.2597212e+01 </wgt>
<wgt id='1723'> +6.2855171e+01 </wgt>
<wgt id='1724'> +6.3147398e+01 </wgt>
<wgt id='1725'> +6.2377026e+01 </wgt>
<wgt id='1726'> +6.2093740e+01 </wgt>
<wgt id='1727'> +6.3207057e+01 </wgt>
<wgt id='1728'> +6.3217929e+01 </wgt>
<wgt id='1729'> +6.2714204e+01 </wgt>
<wgt id='1730'> +6.3108567e+01 </wgt>
<wgt id='1731'> +6.2975345e+01 </wgt>
<wgt id='1732'> +6.2559875e+01 </wgt>
<wgt id='1733'> +6.3271678e+01 </wgt>
<wgt id='1734'> +6.2763350e+01 </wgt>
<wgt id='1735'> +6.3049672e+01 </wgt>
<wgt id='1736'> +6.2406542e+01 </wgt>
<wgt id='1737'> +6.2282792e+01 </wgt>
<wgt id='1738'> +6.2595612e+01 </wgt>
<wgt id='1739'> +6.2574471e+01 </wgt>
<wgt id='1740'> +6.3323119e+01 </wgt>
<wgt id='1741'> +6.2605038e+01 </wgt>
<wgt id='1742'> +6.3089103e+01 </wgt>
<wgt id='1743'> +6.3010908e+01 </wgt>
<wgt id='1744'> +6.2917754e+01 </wgt>
<wgt id='1745'> +6.2955468e+01 </wgt>
<wgt id='1746'> +6.2828904e+01 </wgt>
<wgt id='1747'> +6.2870405e+01 </wgt>
<wgt id='1748'> +6.2890066e+01 </wgt>
<wgt id='1749'> +6.2908685e+01 </wgt>
<wgt id='1750'> +6.2891061e+01 </wgt>
<wgt id='1751'> +6.2810461e+01 </wgt>
<wgt id='1752'> +6.2941607e+01 </wgt>
<wgt id='1753'> +6.3050947e+01 </wgt>
<wgt id='1754'> +6.2835858e+01 </wgt>
<wgt id='1755'> +6.2916614e+01 </wgt>
<wgt id='1756'> +6.2897668e+01 </wgt>
<wgt id='1757'> +6.2950298e+01 </wgt>
<wgt id='1758'> +6.2963309e+01 </wgt>
<wgt id='1759'> +6.2973543e+01 </wgt>
<wgt id='1760'> +6.2935950e+01 </wgt>
<wgt id='1761'> +6.2836913e+01 </wgt>
<wgt id='1762'> +6.3019001e+01 </wgt>
<wgt id='1763'> +6.2937452e+01 </wgt>
<wgt id='1764'> +6.2997468e+01 </wgt>
<wgt id='1765'> +6.2844446e+01 </wgt>
<wgt id='1766'> +6.2866791e+01 </wgt>
<wgt id='1767'> +6.2938064e+01 </wgt>
<wgt id='1768'> +6.2853098e+01 </wgt>
<wgt id='1769'> +6.2896187e+01 </wgt>
<wgt id='1770'> +6.2861009e+01 </wgt>
<wgt id='1771'> +6.2818721e+01 </wgt>
<wgt id='1772'> +6.2874748e+01 </wgt>
<wgt id='1773'> +6.2911016e+01 </wgt>
<wgt id='1774'> +6.2887885e+01 </wgt>
<wgt id='1775'> +6.2936383e+01 </wgt>
<wgt id='1776'> +6.2984756e+01 </wgt>
<wgt id='1777'> +6.2899959e+01 </wgt>
<wgt id='1778'> +6.2839383e+01 </wgt>
<wgt id='1779'> +6.2951098e+01 </wgt>
<wgt id='1780'> +6.2879499e+01 </wgt>
<wgt id='1781'> +6.2910460e+01 </wgt>
<wgt id='1782'> +6.2890783e+01 </wgt>
<wgt id='1783'> +6.2937325e+01 </wgt>
<wgt id='1784'> +6.2950138e+01 </wgt>
<wgt id='1785'> +6.2918306e+01 </wgt>
<wgt id='1786'> +6.2958724e+01 </wgt>
<wgt id='1787'> +6.2945645e+01 </wgt>
<wgt id='1788'> +6.2887168e+01 </wgt>
<wgt id='1789'> +6.2849536e+01 </wgt>
<wgt id='1790'> +6.2863411e+01 </wgt>
<wgt id='1791'> +6.2876206e+01 </wgt>
<wgt id='1792'> +6.2882574e+01 </wgt>
<wgt id='1793'> +6.2894293e+01 </wgt>
<wgt id='1794'> +6.2913036e+01 </wgt>
<wgt id='1795'> +6.2864052e+01 </wgt>
<wgt id='1796'> +6.2905844e+01 </wgt>
<wgt id='1797'> +6.2959904e+01 </wgt>
<wgt id='1798'> +6.2889619e+01 </wgt>
<wgt id='1799'> +6.2946310e+01 </wgt>
<wgt id='1800'> +6.2874346e+01 </wgt>
<wgt id='1801'> +6.2933903e+01 </wgt>
<wgt id='1802'> +6.2959603e+01 </wgt>
<wgt id='1803'> +6.2935624e+01 </wgt>
<wgt id='1804'> +6.2983153e+01 </wgt>
<wgt id='1805'> +6.2929038e+01 </wgt>
<wgt id='1806'> +6.2912856e+01 </wgt>
<wgt id='1807'> +6.2904946e+01 </wgt>
<wgt id='1808'> +6.2913815e+01 </wgt>
<wgt id='1809'> +6.2874012e+01 </wgt>
<wgt id='1810'> +6.2901092e+01 </wgt>
<wgt id='1811'> +6.2891685e+01 </wgt>
<wgt id='1812'> +6.2898772e+01 </wgt>
<wgt id='1813'> +6.2905099e+01 </wgt>
<wgt id='1814'> +6.2900499e+01 </wgt>
<wgt id='1815'> +6.2927862e+01 </wgt>
<wgt id='1816'> +6.2929117e+01 </wgt>
<wgt id='1817'> +6.2917739e+01 </wgt>
<wgt id='1818'> +6.2910718e+01 </wgt>
<wgt id='1819'> +6.2163016e+01 </wgt>
<wgt id='1820'> +6.3708094e+01 </wgt>
<wgt id='1821'> +6.2150369e+01 </wgt>
<wgt id='1822'> +6.2266853e+01 </wgt>
<wgt id='1823'> +6.2206304e+01 </wgt>
<wgt id='1824'> +6.2050448e+01 </wgt>
<wgt id='1825'> +6.2349870e+01 </wgt>
<wgt id='1826'> +6.2556006e+01 </wgt>
<wgt id='1827'> +6.2240342e+01 </wgt>
<wgt id='1828'> +6.1834103e+01 </wgt>
<wgt id='1829'> +6.2019879e+01 </wgt>
<wgt id='1830'> +6.2242682e+01 </wgt>
<wgt id='1831'> +6.2032927e+01 </wgt>
<wgt id='1832'> +6.2441009e+01 </wgt>
<wgt id='1833'> +6.2473458e+01 </wgt>
<wgt id='1834'> +6.2397431e+01 </wgt>
<wgt id='1835'> +6.2184169e+01 </wgt>
<wgt id='1836'> +6.1710265e+01 </wgt>
<wgt id='1837'> +6.2326957e+01 </wgt>
<wgt id='1838'> +6.1873402e+01 </wgt>
<wgt id='1839'> +6.2482491e+01 </wgt>
<wgt id='1840'> +6.2440410e+01 </wgt>
<wgt id='1841'> +6.2734835e+01 </wgt>
<wgt id='1842'> +6.1723165e+01 </wgt>
<wgt id='1843'> +6.2252712e+01 </wgt>
<wgt id='1844'> +6.1690775e+01 </wgt>
<wgt id='1845'> +6.1901908e+01 </wgt>
<wgt id='1846'> +6.2515882e+01 </wgt>
<wgt id='1847'> +6.2135909e+01 </wgt>
<wgt id='1848'> +6.2029344e+01 </wgt>
<wgt id='1849'> +6.2223586e+01 </wgt>
<wgt id='1850'> +6.2169606e+01 </wgt>
<wgt id='1851'> +6.2081332e+01 </wgt>
<wgt id='1852'> +6.2081104e+01 </wgt>
<wgt id='1853'> +6.2221866e+01 </wgt>
<wgt id='1854'> +6.2225886e+01 </wgt>
<wgt id='1855'> +6.2178663e+01 </wgt>
<wgt id='1856'> +6.2206522e+01 </wgt>
<wgt id='1857'> +6.2177075e+01 </wgt>
<wgt id='1858'> +6.2194518e+01 </wgt>
<wgt id='1859'> +6.2206537e+01 </wgt>
<wgt id='1860'> +6.2163727e+01 </wgt>
<wgt id='1861'> +6.2088732e+01 </wgt>
<wgt id='1862'> +6.2165069e+01 </wgt>
<wgt id='1863'> +6.2201257e+01 </wgt>
<wgt id='1864'> +6.2062532e+01 </wgt>
<wgt id='1865'> +6.2180965e+01 </wgt>
<wgt id='1866'> +6.2193435e+01 </wgt>
<wgt id='1867'> +6.2062535e+01 </wgt>
<wgt id='1868'> +6.2176711e+01 </wgt>
<wgt id='1869'> +6.2192593e+01 </wgt>
<wgt id='1870'> +6.2121427e+01 </wgt>
<wgt id='1871'> +6.2151977e+01 </wgt>
<wgt id='1872'> +6.2194902e+01 </wgt>
<wgt id='1873'> +6.2210167e+01 </wgt>
<wgt id='1874'> +6.2153017e+01 </wgt>
<wgt id='1875'> +6.2112160e+01 </wgt>
<wgt id='1876'> +6.2111952e+01 </wgt>
<wgt id='1877'> +6.2188210e+01 </wgt>
<wgt id='1878'> +6.2153256e+01 </wgt>
<wgt id='1879'> +6.2072780e+01 </wgt>
<wgt id='1880'> +6.2107251e+01 </wgt>
<wgt id='1881'> +6.2128008e+01 </wgt>
<wgt id='1882'> +6.2146223e+01 </wgt>
<wgt id='1883'> +6.2164608e+01 </wgt>
<wgt id='1884'> +6.2162695e+01 </wgt>
<wgt id='1885'> +6.2165470e+01 </wgt>
<wgt id='1886'> +6.2127890e+01 </wgt>
<wgt id='1887'> +6.2132737e+01 </wgt>
<wgt id='1888'> +6.2166048e+01 </wgt>
<wgt id='1889'> +6.2155798e+01 </wgt>
<wgt id='1890'> +6.2214735e+01 </wgt>
<wgt id='1891'> +6.2134264e+01 </wgt>
<wgt id='1892'> +6.2191238e+01 </wgt>
<wgt id='1893'> +6.2199385e+01 </wgt>
<wgt id='1894'> +6.2140426e+01 </wgt>
<wgt id='1895'> +6.2163327e+01 </wgt>
<wgt id='1896'> +6.2145127e+01 </wgt>
<wgt id='1897'> +6.2144756e+01 </wgt>
<wgt id='1898'> +6.2170262e+01 </wgt>
<wgt id='1899'> +6.2160557e+01 </wgt>
<wgt id='1900'> +6.2141127e+01 </wgt>
<wgt id='1901'> +6.2217823e+01 </wgt>
<wgt id='1902'> +6.2157110e+01 </wgt>
<wgt id='1903'> +6.2171469e+01 </wgt>
<wgt id='1904'> +6.2134158e+01 </wgt>
<wgt id='1905'> +6.2116830e+01 </wgt>
<wgt id='1906'> +6.2106652e+01 </wgt>
<wgt id='1907'> +6.2170349e+01 </wgt>
<wgt id='1908'> +6.2078576e+01 </wgt>
<wgt id='1909'> +6.2115930e+01 </wgt>
<wgt id='1910'> +6.2120922e+01 </wgt>
<wgt id='1911'> +6.2159174e+01 </wgt>
<wgt id='1912'> +6.2135203e+01 </wgt>
<wgt id='1913'> +6.2140928e+01 </wgt>
<wgt id='1914'> +6.2133187e+01 </wgt>
<wgt id='1915'> +6.2134033e+01 </wgt>
<wgt id='1916'> +6.2158173e+01 </wgt>
<wgt id='1917'> +6.2136349e+01 </wgt>
<wgt id='1918'> +6.2158294e+01 </wgt>
<wgt id='1919'> +6.2143053e+01 </wgt>
<wgt id='1920'> +6.2130055e+01 </wgt>
<wgt id='1921'> +6.2153232e+01 </wgt>
<wgt id='1922'> +6.1330305e+01 </wgt>
<wgt id='1923'> +6.2982167e+01 </wgt>
<wgt id='1924'> +6.2922273e+01 </wgt>
<wgt id='1925'> +6.3103924e+01 </wgt>
<wgt id='1926'> +6.2351866e+01 </wgt>
<wgt id='1927'> +6.2907922e+01 </wgt>
<wgt id='1928'> +6.2163381e+01 </wgt>
<wgt id='1929'> +6.2903776e+01 </wgt>
<wgt id='1930'> +6.2460205e+01 </wgt>
<wgt id='1931'> +6.2910465e+01 </wgt>
<wgt id='1932'> +6.2977814e+01 </wgt>
<wgt id='1933'> +6.2566001e+01 </wgt>
<wgt id='1934'> +6.3032197e+01 </wgt>
<wgt id='1935'> +6.2422024e+01 </wgt>
<wgt id='1936'> +6.2726966e+01 </wgt>
<wgt id='1937'> +6.3004910e+01 </wgt>
<wgt id='1938'> +6.2886430e+01 </wgt>
<wgt id='1939'> +6.3005482e+01 </wgt>
<wgt id='1940'> +6.2740214e+01 </wgt>
<wgt id='1941'> +6.3395920e+01 </wgt>
<wgt id='1942'> +6.3093751e+01 </wgt>
<wgt id='1943'> +6.2175284e+01 </wgt>
<wgt id='1944'> +6.2755335e+01 </wgt>
<wgt id='1945'> +6.2855204e+01 </wgt>
<wgt id='1946'> +6.2972657e+01 </wgt>
<wgt id='1947'> +6.3008126e+01 </wgt>
<wgt id='1948'> +6.2887213e+01 </wgt>
<wgt id='1949'> +6.2870094e+01 </wgt>
<wgt id='1950'> +6.3183508e+01 </wgt>
<wgt id='1951'> +6.3025717e+01 </wgt>
<wgt id='1952'> +6.3728971e+01 </wgt>
<wgt id='1953'> +6.2951510e+01 </wgt>
<wgt id='1954'> +6.2885901e+01 </wgt>
<wgt id='1955'> +6.2163016e+01 </wgt>
<wgt id='1956'> +6.3708094e+01 </wgt>
<wgt id='1957'> +6.2158981e+01 </wgt>
<wgt id='1958'> +6.1020562e+01 </wgt>
<wgt id='1959'> +6.2095831e+01 </wgt>
<wgt id='1960'> +6.2179191e+01 </wgt>
<wgt id='1961'> +6.1896435e+01 </wgt>
<wgt id='1962'> +6.2404403e+01 </wgt>
<wgt id='1963'> +6.2181093e+01 </wgt>
<wgt id='1964'> +6.2187222e+01 </wgt>
<wgt id='1965'> +6.2207599e+01 </wgt>
<wgt id='1966'> +6.2136409e+01 </wgt>
<wgt id='1967'> +6.1876557e+01 </wgt>
<wgt id='1968'> +6.2032974e+01 </wgt>
<wgt id='1969'> +6.2107794e+01 </wgt>
<wgt id='1970'> +6.2231578e+01 </wgt>
<wgt id='1971'> +6.2079473e+01 </wgt>
<wgt id='1972'> +6.1974756e+01 </wgt>
<wgt id='1973'> +6.2244160e+01 </wgt>
<wgt id='1974'> +6.2333343e+01 </wgt>
<wgt id='1975'> +6.2184094e+01 </wgt>
<wgt id='1976'> +6.2216163e+01 </wgt>
<wgt id='1977'> +6.2204353e+01 </wgt>
<wgt id='1978'> +6.2287426e+01 </wgt>
<wgt id='1979'> +6.2425684e+01 </wgt>
<wgt id='1980'> +6.2175353e+01 </wgt>
<wgt id='1981'> +6.1972463e+01 </wgt>
<wgt id='1982'> +6.2091191e+01 </wgt>
<wgt id='1983'> +6.2152376e+01 </wgt>
<wgt id='1984'> +6.2280207e+01 </wgt>
<wgt id='1985'> +6.2094200e+01 </wgt>
<wgt id='1986'> +6.1510634e+01 </wgt>
<wgt id='1987'> +6.2174491e+01 </wgt>
<wgt id='1988'> +6.1330305e+01 </wgt>
<wgt id='1989'> +6.2982167e+01 </wgt>
<wgt id='1990'> +5.6098004e+01 </wgt>
<wgt id='1991'> +5.6027074e+01 </wgt>
<wgt id='1992'> +5.6168716e+01 </wgt>
<wgt id='1993'> +5.6124521e+01 </wgt>
<wgt id='1994'> +5.6071404e+01 </wgt>
<wgt id='1995'> +5.6157716e+01 </wgt>
<wgt id='1996'> +5.6038551e+01 </wgt>
<wgt id='1997'> +5.6375841e+01 </wgt>
<wgt id='1998'> +5.5826129e+01 </wgt>
<wgt id='1999'> +5.6012963e+01 </wgt>
<wgt id='2000'> +5.6185416e+01 </wgt>
<wgt id='2001'> +5.5723293e+01 </wgt>
<wgt id='2002'> +5.6513005e+01 </wgt>
<wgt id='2003'> +5.5973800e+01 </wgt>
<wgt id='2004'> +5.6224983e+01 </wgt>
<wgt id='2005'> +5.6339911e+01 </wgt>
<wgt id='2006'> +5.5771259e+01 </wgt>
<wgt id='2007'> +5.6340898e+01 </wgt>
<wgt id='2008'> +5.5945151e+01 </wgt>
<wgt id='2009'> +5.6341463e+01 </wgt>
<wgt id='2010'> +5.5820287e+01 </wgt>
<wgt id='2011'> +5.6149895e+01 </wgt>
<wgt id='2012'> +5.6049934e+01 </wgt>
<wgt id='2013'> +5.5530905e+01 </wgt>
<wgt id='2014'> +5.6624285e+01 </wgt>
<wgt id='2015'> +5.5702696e+01 </wgt>
<wgt id='2016'> +5.6512888e+01 </wgt>
<wgt id='2017'> +5.6977107e+01 </wgt>
<wgt id='2018'> +5.5301909e+01 </wgt>
<wgt id='2019'> +5.6098004e+01 </wgt>
<wgt id='2020'> +5.6215015e+01 </wgt>
<wgt id='2021'> +5.5506766e+01 </wgt>
<wgt id='2022'> +5.6225458e+01 </wgt>
<wgt id='2023'> +5.5647972e+01 </wgt>
<wgt id='2024'> +5.5595322e+01 </wgt>
<wgt id='2025'> +5.6800948e+01 </wgt>
<wgt id='2026'> +5.5962080e+01 </wgt>
<wgt id='2027'> +5.5954707e+01 </wgt>
<wgt id='2028'> +5.6360324e+01 </wgt>
<wgt id='2029'> +5.5536044e+01 </wgt>
<wgt id='2030'> +5.5592071e+01 </wgt>
<wgt id='2031'> +5.5825233e+01 </wgt>
<wgt id='2032'> +5.6320864e+01 </wgt>
<wgt id='2033'> +6.0697484e+01 </wgt>
<wgt id='2034'> +6.0352175e+01 </wgt>
<wgt id='2035'> +6.0480808e+01 </wgt>
<wgt id='2036'> +6.0393984e+01 </wgt>
<wgt id='2037'> +6.0439294e+01 </wgt>
<wgt id='2038'> +6.0474200e+01 </wgt>
<wgt id='2039'> +6.0359011e+01 </wgt>
<wgt id='2040'> +6.0781911e+01 </wgt>
<wgt id='2041'> +6.0061534e+01 </wgt>
<wgt id='2042'> +6.0131747e+01 </wgt>
<wgt id='2043'> +6.0711276e+01 </wgt>
<wgt id='2044'> +6.0621101e+01 </wgt>
<wgt id='2045'> +6.0216260e+01 </wgt>
<wgt id='2046'> +6.0352102e+01 </wgt>
<wgt id='2047'> +6.0475788e+01 </wgt>
<wgt id='2048'> +6.0446628e+01 </wgt>
<wgt id='2049'> +6.0229349e+01 </wgt>
<wgt id='2050'> +6.0384891e+01 </wgt>
<wgt id='2051'> +6.0453305e+01 </wgt>
<wgt id='2052'> +6.0468794e+01 </wgt>
<wgt id='2053'> +6.0374244e+01 </wgt>
<wgt id='2054'> +6.0912748e+01 </wgt>
<wgt id='2055'> +5.9933181e+01 </wgt>
<wgt id='2056'> +5.9883413e+01 </wgt>
<wgt id='2057'> +6.0960331e+01 </wgt>
<wgt id='2058'> +5.9455439e+01 </wgt>
<wgt id='2059'> +6.1342490e+01 </wgt>
<wgt id='2060'> +6.0001827e+01 </wgt>
<wgt id='2061'> +6.0874040e+01 </wgt>
<wgt id='2062'> +6.0674732e+01 </wgt>
<wgt id='2063'> +6.0642163e+01 </wgt>
<wgt id='2064'> +5.9759698e+01 </wgt>
<wgt id='2065'> +6.0621405e+01 </wgt>
<wgt id='2066'> +6.0228040e+01 </wgt>
<wgt id='2067'> +5.8832819e+01 </wgt>
<wgt id='2068'> +6.0634364e+01 </wgt>
<wgt id='2069'> +6.0378590e+01 </wgt>
<wgt id='2070'> +6.0562160e+01 </wgt>
<wgt id='2071'> +6.0805042e+01 </wgt>
<wgt id='2072'> +5.8255958e+01 </wgt>
<wgt id='2073'> +6.0464676e+01 </wgt>
<wgt id='2074'> +6.0439515e+01 </wgt>
<wgt id='2075'> +6.1137172e+01 </wgt>
<wgt id='2076'> +6.1845192e+01 </wgt>
<wgt id='2077'> +6.1838449e+01 </wgt>
<wgt id='2078'> +6.1831467e+01 </wgt>
<wgt id='2079'> +6.1824461e+01 </wgt>
<wgt id='2080'> +6.1817481e+01 </wgt>
<wgt id='2081'> +6.1810647e+01 </wgt>
<wgt id='2082'> +6.1803663e+01 </wgt>
<wgt id='2083'> +6.1796761e+01 </wgt>
<wgt id='2084'> +6.1789764e+01 </wgt>
<wgt id='2085'> +6.1782791e+01 </wgt>
<wgt id='2086'> +6.1775955e+01 </wgt>
<wgt id='2087'> +6.1768967e+01 </wgt>
<wgt id='2088'> +6.1761975e+01 </wgt>
<wgt id='2089'> +6.1755079e+01 </wgt>
<wgt id='2090'> +6.1748096e+01 </wgt>
<wgt id='2091'> +6.1741270e+01 </wgt>
<wgt id='2092'> +6.1734293e+01 </wgt>
<wgt id='2093'> +6.1727299e+01 </wgt>
<wgt id='2094'> +6.1720303e+01 </wgt>
<wgt id='2095'> +6.1713409e+01 </wgt>
<wgt id='2096'> +6.1706599e+01 </wgt>
<wgt id='2097'> +6.1699616e+01 </wgt>
<wgt id='2098'> +6.1692623e+01 </wgt>
<wgt id='2099'> +6.1685649e+01 </wgt>
<wgt id='2100'> +6.1678660e+01 </wgt>
<wgt id='2101'> +6.1671923e+01 </wgt>
<wgt id='2102'> +6.1664937e+01 </wgt>
<wgt id='2103'> +6.1657961e+01 </wgt>
<wgt id='2104'> +6.1650965e+01 </wgt>
<wgt id='2105'> +6.1643994e+01 </wgt>
<wgt id='2106'> +6.1637192e+01 </wgt>
<wgt id='2107'> +6.1443442e+01 </wgt>
<wgt id='2108'> +6.1559247e+01 </wgt>
<wgt id='2109'> +6.1486235e+01 </wgt>
<wgt id='2110'> +6.1359817e+01 </wgt>
<wgt id='2111'> +6.1645476e+01 </wgt>
<wgt id='2112'> +6.1851003e+01 </wgt>
<wgt id='2113'> +6.1540147e+01 </wgt>
<wgt id='2114'> +6.1124717e+01 </wgt>
<wgt id='2115'> +6.1312598e+01 </wgt>
<wgt id='2116'> +6.1541379e+01 </wgt>
<wgt id='2117'> +6.1337205e+01 </wgt>
<wgt id='2118'> +6.1730355e+01 </wgt>
<wgt id='2119'> +6.1763538e+01 </wgt>
<wgt id='2120'> +6.1701075e+01 </wgt>
<wgt id='2121'> +6.1463851e+01 </wgt>
<wgt id='2122'> +6.0987140e+01 </wgt>
<wgt id='2123'> +6.1618769e+01 </wgt>
<wgt id='2124'> +6.1171732e+01 </wgt>
<wgt id='2125'> +6.1770970e+01 </wgt>
<wgt id='2126'> +6.1732569e+01 </wgt>
<wgt id='2127'> +6.2029264e+01 </wgt>
<wgt id='2128'> +6.1011483e+01 </wgt>
<wgt id='2129'> +6.1549119e+01 </wgt>
<wgt id='2130'> +6.0986634e+01 </wgt>
<wgt id='2131'> +6.1193199e+01 </wgt>
<wgt id='2132'> +6.1799682e+01 </wgt>
<wgt id='2133'> +6.1424111e+01 </wgt>
<wgt id='2134'> +6.1328382e+01 </wgt>
<wgt id='2135'> +6.1519566e+01 </wgt>
<wgt id='2136'> +6.1462548e+01 </wgt>
<wgt id='2137'> +6.1375458e+01 </wgt>
<wgt id='2138'> +6.1381945e+01 </wgt>
<wgt id='2139'> +6.1514695e+01 </wgt>
<wgt id='2140'> +6.1520488e+01 </wgt>
<wgt id='2141'> +6.1468882e+01 </wgt>
<wgt id='2142'> +6.1500129e+01 </wgt>
<wgt id='2143'> +6.1469000e+01 </wgt>
<wgt id='2144'> +6.1490906e+01 </wgt>
<wgt id='2145'> +6.1498818e+01 </wgt>
<wgt id='2146'> +6.1455708e+01 </wgt>
<wgt id='2147'> +6.1382120e+01 </wgt>
<wgt id='2148'> +6.1452059e+01 </wgt>
<wgt id='2149'> +6.1488928e+01 </wgt>
<wgt id='2150'> +6.1362473e+01 </wgt>
<wgt id='2151'> +6.1474463e+01 </wgt>
<wgt id='2152'> +6.1481956e+01 </wgt>
<wgt id='2153'> +6.1357700e+01 </wgt>
<wgt id='2154'> +6.1464479e+01 </wgt>
<wgt id='2155'> +6.1485555e+01 </wgt>
<wgt id='2156'> +6.1411405e+01 </wgt>
<wgt id='2157'> +6.1446451e+01 </wgt>
<wgt id='2158'> +6.1488366e+01 </wgt>
<wgt id='2159'> +6.1501403e+01 </wgt>
<wgt id='2160'> +6.1449605e+01 </wgt>
<wgt id='2161'> +6.1406842e+01 </wgt>
<wgt id='2162'> +6.1405901e+01 </wgt>
<wgt id='2163'> +6.1479620e+01 </wgt>
<wgt id='2164'> +6.1444402e+01 </wgt>
<wgt id='2165'> +6.1370993e+01 </wgt>
<wgt id='2166'> +6.1402221e+01 </wgt>
<wgt id='2167'> +6.1422608e+01 </wgt>
<wgt id='2168'> +6.1439967e+01 </wgt>
<wgt id='2169'> +6.1456676e+01 </wgt>
<wgt id='2170'> +6.1457068e+01 </wgt>
<wgt id='2171'> +6.1456838e+01 </wgt>
<wgt id='2172'> +6.1421989e+01 </wgt>
<wgt id='2173'> +6.1427066e+01 </wgt>
<wgt id='2174'> +6.1458206e+01 </wgt>
<wgt id='2175'> +6.1449357e+01 </wgt>
<wgt id='2176'> +6.1506477e+01 </wgt>
<wgt id='2177'> +6.1427029e+01 </wgt>
<wgt id='2178'> +6.1486058e+01 </wgt>
<wgt id='2179'> +6.1492766e+01 </wgt>
<wgt id='2180'> +6.1431610e+01 </wgt>
<wgt id='2181'> +6.1456391e+01 </wgt>
<wgt id='2182'> +6.1437520e+01 </wgt>
<wgt id='2183'> +6.1440391e+01 </wgt>
<wgt id='2184'> +6.1463729e+01 </wgt>
<wgt id='2185'> +6.1456884e+01 </wgt>
<wgt id='2186'> +6.1434074e+01 </wgt>
<wgt id='2187'> +6.1507650e+01 </wgt>
<wgt id='2188'> +6.1451195e+01 </wgt>
<wgt id='2189'> +6.1464966e+01 </wgt>
<wgt id='2190'> +6.1426409e+01 </wgt>
<wgt id='2191'> +6.1409602e+01 </wgt>
<wgt id='2192'> +6.1401716e+01 </wgt>
<wgt id='2193'> +6.1464679e+01 </wgt>
<wgt id='2194'> +6.1372311e+01 </wgt>
<wgt id='2195'> +6.1408988e+01 </wgt>
<wgt id='2196'> +6.1413670e+01 </wgt>
<wgt id='2197'> +6.1452420e+01 </wgt>
<wgt id='2198'> +6.1428331e+01 </wgt>
<wgt id='2199'> +6.1434083e+01 </wgt>
<wgt id='2200'> +6.1426563e+01 </wgt>
<wgt id='2201'> +6.1426939e+01 </wgt>
<wgt id='2202'> +6.1451962e+01 </wgt>
<wgt id='2203'> +6.1429104e+01 </wgt>
<wgt id='2204'> +6.1451199e+01 </wgt>
<wgt id='2205'> +6.1436827e+01 </wgt>
<wgt id='2206'> +6.1423106e+01 </wgt>
<wgt id='2207'> +6.1446261e+01 </wgt>
<wgt id='2208'> +6.1442753e+01 </wgt>
<wgt id='2209'> +6.1438907e+01 </wgt>
<wgt id='2210'> +6.1444162e+01 </wgt>
<wgt id='2211'> +6.1444278e+01 </wgt>
<wgt id='2212'> +6.1445543e+01 </wgt>
<wgt id='2213'> +6.1443747e+01 </wgt>
<wgt id='2214'> +6.1440415e+01 </wgt>
<wgt id='2215'> +6.4139328e+01 </wgt>
<wgt id='2216'> +6.2562764e+01 </wgt>
<wgt id='2217'> +6.5025342e+01 </wgt>
<wgt id='2218'> +6.5446787e+01 </wgt>
<wgt id='2219'> +6.1905471e+01 </wgt>
<wgt id='2220'> +6.1029697e+01 </wgt>
<wgt id='2221'> +6.3596776e+01 </wgt>
<wgt id='2222'> +6.4312692e+01 </wgt>
<wgt id='2223'> +6.4602489e+01 </wgt>
<wgt id='2224'> +6.4514718e+01 </wgt>
<wgt id='2225'> +6.4405030e+01 </wgt>
<wgt id='2226'> +6.2384294e+01 </wgt>
<wgt id='2227'> +6.4154179e+01 </wgt>
<wgt id='2228'> +6.3315477e+01 </wgt>
<wgt id='2229'> +6.5336090e+01 </wgt>
<wgt id='2230'> +6.4752670e+01 </wgt>
<wgt id='2231'> +6.5455331e+01 </wgt>
<wgt id='2232'> +6.5860594e+01 </wgt>
<wgt id='2233'> +6.5491668e+01 </wgt>
<wgt id='2234'> +6.3783729e+01 </wgt>
<wgt id='2235'> +6.5808867e+01 </wgt>
<wgt id='2236'> +6.2940721e+01 </wgt>
<wgt id='2237'> +6.3391113e+01 </wgt>
<wgt id='2238'> +6.5121205e+01 </wgt>
<wgt id='2239'> +6.3154201e+01 </wgt>
<wgt id='2240'> +6.3903958e+01 </wgt>
<wgt id='2241'> +6.2771940e+01 </wgt>
<wgt id='2242'> +6.6427425e+01 </wgt>
<wgt id='2243'> +6.4494721e+01 </wgt>
<wgt id='2244'> +6.5263626e+01 </wgt>
<wgt id='2245'> +6.4539499e+01 </wgt>
<wgt id='2246'> +6.2840022e+01 </wgt>
<wgt id='2247'> +6.3091225e+01 </wgt>
<wgt id='2248'> +6.3666518e+01 </wgt>
<wgt id='2249'> +6.2637748e+01 </wgt>
<wgt id='2250'> +6.6783544e+01 </wgt>
<wgt id='2251'> +6.4655302e+01 </wgt>
<wgt id='2252'> +6.4946953e+01 </wgt>
<wgt id='2253'> +6.4365298e+01 </wgt>
<wgt id='2254'> +6.2713766e+01 </wgt>
<wgt id='2255'> +6.3447685e+01 </wgt>
<wgt id='2256'> +6.3601959e+01 </wgt>
<wgt id='2257'> +6.3289223e+01 </wgt>
<wgt id='2258'> +6.2741640e+01 </wgt>
<wgt id='2259'> +6.3907087e+01 </wgt>
<wgt id='2260'> +6.5162796e+01 </wgt>
<wgt id='2261'> +6.3829176e+01 </wgt>
<wgt id='2262'> +6.4035536e+01 </wgt>
<wgt id='2263'> +6.4036304e+01 </wgt>
<wgt id='2264'> +6.5326044e+01 </wgt>
<wgt id='2265'> +6.3992740e+01 </wgt>
<wgt id='2266'> +6.3524273e+01 </wgt>
<wgt id='2267'> +6.4180720e+01 </wgt>
<wgt id='2268'> +6.4181237e+01 </wgt>
<wgt id='2269'> +6.2669562e+01 </wgt>
<wgt id='2270'> +6.3833521e+01 </wgt>
<wgt id='2271'> +6.4765798e+01 </wgt>
<wgt id='2272'> +6.4505893e+01 </wgt>
<wgt id='2273'> +6.3685086e+01 </wgt>
<wgt id='2274'> +6.5422165e+01 </wgt>
<wgt id='2275'> +6.3928253e+01 </wgt>
<wgt id='2276'> +6.4572947e+01 </wgt>
<wgt id='2277'> +6.5049087e+01 </wgt>
<wgt id='2278'> +6.3327207e+01 </wgt>
<wgt id='2279'> +6.5344270e+01 </wgt>
<wgt id='2280'> +6.4205075e+01 </wgt>
<wgt id='2281'> +6.3764963e+01 </wgt>
<wgt id='2282'> +6.6498554e+01 </wgt>
<wgt id='2283'> +6.4061810e+01 </wgt>
<wgt id='2284'> +6.3149803e+01 </wgt>
<wgt id='2285'> +6.3369356e+01 </wgt>
<wgt id='2286'> +6.3869459e+01 </wgt>
<wgt id='2287'> +6.3465528e+01 </wgt>
<wgt id='2288'> +6.2998536e+01 </wgt>
<wgt id='2289'> +6.4212966e+01 </wgt>
<wgt id='2290'> +6.4432380e+01 </wgt>
<wgt id='2291'> +6.1711775e+01 </wgt>
<wgt id='2292'> +6.2478190e+01 </wgt>
<wgt id='2293'> +6.4043129e+01 </wgt>
<wgt id='2294'> +6.4091096e+01 </wgt>
<wgt id='2295'> +6.3371176e+01 </wgt>
<wgt id='2296'> +6.4076356e+01 </wgt>
<wgt id='2297'> +6.3350817e+01 </wgt>
<wgt id='2298'> +6.4899215e+01 </wgt>
<wgt id='2299'> +6.4716494e+01 </wgt>
<wgt id='2300'> +6.4444671e+01 </wgt>
<wgt id='2301'> +6.4216089e+01 </wgt>
<wgt id='2302'> +6.5227512e+01 </wgt>
<wgt id='2303'> +6.4680192e+01 </wgt>
<wgt id='2304'> +6.4700686e+01 </wgt>
<wgt id='2305'> +6.3161093e+01 </wgt>
<wgt id='2306'> +6.3251324e+01 </wgt>
<wgt id='2307'> +6.4035063e+01 </wgt>
<wgt id='2308'> +6.4972970e+01 </wgt>
<wgt id='2309'> +6.5530166e+01 </wgt>
<wgt id='2310'> +6.5571349e+01 </wgt>
<wgt id='2311'> +6.4229639e+01 </wgt>
<wgt id='2312'> +6.4520776e+01 </wgt>
<wgt id='2313'> +6.4305521e+01 </wgt>
<wgt id='2314'> +6.5096668e+01 </wgt>
<wgt id='2315'> +6.4950217e+01 </wgt>
<wgt id='2316'> +6.3500086e+01 </wgt>
<wgt id='2317'> +6.4373814e+01 </wgt>
<wgt id='2318'> +6.2116874e+01 </wgt>
<wgt id='2319'> +6.2753830e+01 </wgt>
<wgt id='2320'> +6.9837801e+01 </wgt>
<wgt id='2321'> +6.7732902e+01 </wgt>
<wgt id='2322'> +6.7506753e+01 </wgt>
</rwgt>
</event>
<event>
12      1 +6.1139206e+01 1.89055900e+02 7.56146200e-03 1.06317900e-01
       -1 -1    0    0    0  501 -0.0000000000e+00 +0.0000000000e+00 +4.9771647639e+01 4.9771647639e+01 0.0000000000e+00 0.0000e+00 1.0000e+00
        1 -1    0    0  503    0 +0.0000000000e+00 -0.0000000000e+00 -7.4933013064e+02 7.4933013064e+02 0.0000000000e+00 0.0000e+00 -1.0000e+00
        6  2    1    2  503    0 +1.8178908173e+01 +7.4845813427e+01 -4.3181940939e+02 4.7150571891e+02 1.7296610117e+02 0.0000e+00 0.0000e+00
       24  2    3    3    0    0 +5.8863423368e+01 +8.2427334227e+01 -3.8841006645e+02 4.1138456882e+02 9.0087267165e+01 0.0000e+00 0.0000e+00
       -6  2    1    2    0  501 -1.8178908173e+01 -7.4845813427e+01 -2.6773907361e+02 3.2759605936e+02 1.7234441703e+02 0.0000e+00 0.0000e+00
      -24  2    5    5    0    0 -7.4269651148e+01 -7.5822112880e+01 -1.9666385855e+02 2.3695234361e+02 7.8770337072e+01 0.0000e+00 0.0000e+00
        2  1    4    4  502    0 +5.0839021437e+01 +5.7909187482e+01 -3.7395692571e+02 3.8181391067e+02 0.0000000000e+00 0.0000e+00 -1.0000e+00
       -1  1    4    4    0  502 +8.0244019311e+00 +2.4518146745e+01 -1.4453140742e+01 2.9570658150e+01 0.0000000000e+00 0.0000e+00 1.0000e+00
        5  1    3    3  503    0 -4.0684515195e+01 -7.5815207994e+00 -4.3409342934e+01 6.0121150091e+01 4.1800000000e+00 0.0000e+00 -1.0000e+00
       15  1    6    6    0    0 -3.0684896221e+01 -7.3662752326e+01 -1.6419874558e+02 1.8256229618e+02 0.0000000000e+00 0.0000e+00 -1.0000e+00
      -16  1    6    6    0    0 -4.3584754927e+01 -2.1593605540e+00 -3.2465112970e+01 5.4390047437e+01 0.0000000000e+00 0.0000e+00 1.0000e+00
       -5  1    5    5    0  501 +5.6090742975e+01 +9.7629945311e-01 -7.1075215061e+01 9.0643715745e+01 4.1800000000e+00 0.0000e+00 1.0000e+00
<scales pt_clust_7="13000.00000" pt_clust_8="13000.00000" pt_clust_9="13000.00000" pt_clust_10="13000.00000" pt_clust_11="13000.00000" pt_clust_12="13000.00000"></scales>
<mgrwt>
<rscale>  2 0.18905592E+03</rscale>
<asrwt>0</asrwt>
<pdfrwt beam="1">  1        1 0.11528156E+00 0.18905592E+03</pdfrwt>
<pdfrwt beam="2">  1       -1 0.76571762E-02 0.18905592E+03</pdfrwt>
<totfact> 0.29141583E+01</totfact>
</mgrwt>
<clustering>
<clus scale="   78.770"> 10 11 -1 -1</clus>
<clus scale="   90.087">  7  8 -1 -1</clus>
<clus scale="  172.344"> 10 12 -1 -1</clus>
<clus scale="  172.966">  7  9 -1 -1</clus>
<clus scale="  244.662">  7 10 -1 -1</clus>
<clus scale="  189.056">  2  7  1 -1</clus>
</clustering>
<rwgt>
<wgt id='dummy'> +6.1139206e+01 </wgt>
<wgt id='ctGRe_0p_cQj18_0p_cQj38_0p_cQj11_0p_cjj31_0p_ctu8_0p_ctd8_0p_ctj8_0p_cQu8_0p_cQd8_0p_ctu1_0p_ctd1_0p_ctj1_0p_cQu1_0p_cQd1_0p'> +6.1139206e+01 </wgt>
<wgt id='ctGRe_1p_cQj18_0p_cQj38_0p_cQj11_0p_cjj31_0p_ctu8_0p_ctd8_0p_ctj8_0p_cQu8_0p_cQd8_0p_ctu1_0p_ctd1_0p_ctj1_0p_cQu1_0p_cQd1_0p'> +4.7772570e+01 </wgt>
<wgt id='ctGRe_0p_cQj18_1p_cQj38_0p_cQj11_0p_cjj31_0p_ctu8_0p_ctd8_0p_ctj8_0p_cQu8_0p_cQd8_0p_ctu1_0p_ctd1_0p_ctj1_0p_cQu1_0p_cQd1_0p'> +6.8450727e+01 </wgt>
<wgt id='ctGRe_0p_cQj18_0p_cQj38_1p_cQj11_0p_cjj31_0p_ctu8_0p_ctd8_0p_ctj8_0p_cQu8_0p_cQd8_0p_ctu1_0p_ctd1_0p_ctj1_0p_cQu1_0p_cQd1_0p'> +5.4243457e+01 </wgt>
<wgt id='ctGRe_0p_cQj18_0p_cQj38_0p_cQj11_1p_cjj31_0p_ctu8_0p_ctd8_0p_ctj8_0p_cQu8_0p_cQd8_0p_ctu1_0p_ctd1_0p_ctj1_0p_cQu1_0p_cQd1_0p'> +6.0897726e+01 </wgt>
<wgt id='ctGRe_0p_cQj18_0p_cQj38_0p_cQj11_0p_cjj31_1p_ctu8_0p_ctd8_0p_ctj8_0p_cQu8_0p_cQd8_0p_ctu1_0p_ctd1_0p_ctj1_0p_cQu1_0p_cQd1_0p'> +6.1139206e+01 </wgt>
<wgt id='ctGRe_0p_cQj18_0p_cQj38_0p_cQj11_0p_cjj31_0p_ctu8_1p_ctd8_0p_ctj8_0p_cQu8_0p_cQd8_0p_ctu1_0p_ctd1_0p_ctj1_0p_cQu1_0p_cQd1_0p'> +6.1139206e+01 </wgt>
<wgt id='ctGRe_0p_cQj18_0p_cQj38_0p_cQj11_0p_cjj31_0p_ctu8_0p_ctd8_1p_ctj8_0p_cQu8_0p_cQd8_0p_ctu1_0p_ctd1_0p_ctj1_0p_cQu1_0p_cQd1_0p'> +6.1139206e+01 </wgt>
<wgt id='ctGRe_0p_cQj18_0p_cQj38_0p_cQj11_0p_cjj31_0p_ctu8_0p_ctd8_0p_ctj8_1p_cQu8_0p_cQd8_0p_ctu1_0p_ctd1_0p_ctj1_0p_cQu1_0p_cQd1_0p'> +6.7778895e+01 </wgt>
<wgt id='ctGRe_0p_cQj18_0p_cQj38_0p_cQj11_0p_cjj31_0p_ctu8_0p_ctd8_0p_ctj8_0p_cQu8_1p_cQd8_0p_ctu1_0p_ctd1_0p_ctj1_0p_cQu1_0p_cQd1_0p'> +6.1139206e+01 </wgt>
<wgt id='ctGRe_0p_cQj18_0p_cQj38_0p_cQj11_0p_cjj31_0p_ctu8_0p_ctd8_0p_ctj8_0p_cQu8_0p_cQd8_1p_ctu1_0p_ctd1_0p_ctj1_0p_cQu1_0p_cQd1_0p'> +6.1139206e+01 </wgt>
<wgt id='ctGRe_0p_cQj18_0p_cQj38_0p_cQj11_0p_cjj31_0p_ctu8_0p_ctd8_0p_ctj8_0p_cQu8_0p_cQd8_0p_ctu1_1p_ctd1_0p_ctj1_0p_cQu1_0p_cQd1_0p'> +6.1139206e+01 </wgt>
<wgt id='ctGRe_0p_cQj18_0p_cQj38_0p_cQj11_0p_cjj31_0p_ctu8_0p_ctd8_0p_ctj8_0p_cQu8_0p_cQd8_0p_ctu1_0p_ctd1_1p_ctj1_0p_cQu1_0p_cQd1_0p'> +6.1139206e+01 </wgt>
<wgt id='ctGRe_0p_cQj18_0p_cQj38_0p_cQj11_0p_cjj31_0p_ctu8_0p_ctd8_0p_ctj8_0p_cQu8_0p_cQd8_0p_ctu1_0p_ctd1_0p_ctj1_1p_cQu1_0p_cQd1_0p'> +6.0847500e+01 </wgt>
<wgt id='ctGRe_0p_cQj18_0p_cQj38_0p_cQj11_0p_cjj31_0p_ctu8_0p_ctd8_0p_ctj8_0p_cQu8_0p_cQd8_0p_ctu1_0p_ctd1_0p_ctj1_0p_cQu1_1p_cQd1_0p'> +6.1139206e+01 </wgt>
<wgt id='ctGRe_0p_cQj18_0p_cQj38_0p_cQj11_0p_cjj31_0p_ctu8_0p_ctd8_0p_ctj8_0p_cQu8_0p_cQd8_0p_ctu1_0p_ctd1_0p_ctj1_0p_cQu1_0p_cQd1_1p'> +6.1139206e+01 </wgt>
<wgt id='ctGRe_2p_cQj18_0p_cQj38_0p_cQj11_0p_cjj31_0p_ctu8_0p_ctd8_0p_ctj8_0p_cQu8_0p_cQd8_0p_ctu1_0p_ctd1_0p_ctj1_0p_cQu1_0p_cQd1_0p'> +3.6064027e+01 </wgt>
<wgt id='ctGRe_1p_cQj18_1p_cQj38_0p_cQj11_0p_cjj31_0p_ctu8_0p_ctd8_0p_ctj8_0p_cQu8_0p_cQd8_0p_ctu1_0p_ctd1_0p_ctj1_0p_cQu1_0p_cQd1_0p'> +5.4254517e+01 </wgt>
<wgt id='ctGRe_1p_cQj18_0p_cQj38_1p_cQj11_0p_cjj31_0p_ctu8_0p_ctd8_0p_ctj8_0p_cQu8_0p_cQd8_0p_ctu1_0p_ctd1_0p_ctj1_0p_cQu1_0p_cQd1_0p'> +4.1706396e+01 </wgt>
<wgt id='ctGRe_1p_cQj18_0p_cQj38_0p_cQj11_1p_cjj31_0p_ctu8_0p_ctd8_0p_ctj8_0p_cQu8_0p_cQd8_0p_ctu1_0p_ctd1_0p_ctj1_0p_cQu1_0p_cQd1_0p'> +4.7531091e+01 </wgt>
<wgt id='ctGRe_1p_cQj18_0p_cQj38_0p_cQj11_0p_cjj31_1p_ctu8_0p_ctd8_0p_ctj8_0p_cQu8_0p_cQd8_0p_ctu1_0p_ctd1_0p_ctj1_0p_cQu1_0p_cQd1_0p'> +4.7772570e+01 </wgt>
<wgt id='ctGRe_1p_cQj18_0p_cQj38_0p_cQj11_0p_cjj31_0p_ctu8_1p_ctd8_0p_ctj8_0p_cQu8_0p_cQd8_0p_ctu1_0p_ctd1_0p_ctj1_0p_cQu1_0p_cQd1_0p'> +4.7772570e+01 </wgt>
<wgt id='ctGRe_1p_cQj18_0p_cQj38_0p_cQj11_0p_cjj31_0p_ctu8_0p_ctd8_1p_ctj8_0p_cQu8_0p_cQd8_0p_ctu1_0p_ctd1_0p_ctj1_0p_cQu1_0p_cQd1_0p'> +4.7772570e+01 </wgt>
<wgt id='ctGRe_1p_cQj18_0p_cQj38_0p_cQj11_0p_cjj31_0p_ctu8_0p_ctd8_0p_ctj8_1p_cQu8_0p_cQd8_0p_ctu1_0p_ctd1_0p_ctj1_0p_cQu1_0p_cQd1_0p'> +5.3656740e+01 </wgt>
<wgt id='ctGRe_1p_cQj18_0p_cQj38_0p_cQj11_0p_cjj31_0p_ctu8_0p_ctd8_0p_ctj8_0p_cQu8_1p_cQd8_0p_ctu1_0p_ctd1_0p_ctj1_0p_cQu1_0p_cQd1_0p'> +4.7772570e+01 </wgt>
<wgt id='ctGRe_1p_cQj18_0p_cQj38_0p_cQj11_0p_cjj31_0p_ctu8_0p_ctd8_0p_ctj8_0p_cQu8_0p_cQd8_1p_ctu1_0p_ctd1_0p_ctj1_0p_cQu1_0p_cQd1_0p'> +4.7772570e+01 </wgt>
<wgt id='ctGRe_1p_cQj18_0p_cQj38_0p_cQj11_0p_cjj31_0p_ctu8_0p_ctd8_0p_ctj8_0p_cQu8_0p_cQd8_0p_ctu1_1p_ctd1_0p_ctj1_0p_cQu1_0p_cQd1_0p'> +4.7772570e+01 </wgt>
<wgt id='ctGRe_1p_cQj18_0p_cQj38_0p_cQj11_0p_cjj31_0p_ctu8_0p_ctd8_0p_ctj8_0p_cQu8_0p_cQd8_0p_ctu1_0p_ctd1_1p_ctj1_0p_cQu1_0p_cQd1_0p'> +4.7772570e+01 </wgt>
<wgt id='ctGRe_1p_cQj18_0p_cQj38_0p_cQj11_0p_cjj31_0p_ctu8_0p_ctd8_0p_ctj8_0p_cQu8_0p_cQd8_0p_ctu1_0p_ctd1_0p_ctj1_1p_cQu1_0p_cQd1_0p'> +4.7480864e+01 </wgt>
<wgt id='ctGRe_1p_cQj18_0p_cQj38_0p_cQj11_0p_cjj31_0p_ctu8_0p_ctd8_0p_ctj8_0p_cQu8_0p_cQd8_0p_ctu1_0p_ctd1_0p_ctj1_0p_cQu1_1p_cQd1_0p'> +4.7772570e+01 </wgt>
<wgt id='ctGRe_1p_cQj18_0p_cQj38_0p_cQj11_0p_cjj31_0p_ctu8_0p_ctd8_0p_ctj8_0p_cQu8_0p_cQd8_0p_ctu1_0p_ctd1_0p_ctj1_0p_cQu1_0p_cQd1_1p'> +4.7772570e+01 </wgt>
<wgt id='ctGRe_0p_cQj18_2p_cQj38_0p_cQj11_0p_cjj31_0p_ctu8_0p_ctd8_0p_ctj8_0p_cQu8_0p_cQd8_0p_ctu1_0p_ctd1_0p_ctj1_0p_cQu1_0p_cQd1_0p'> +7.6178021e+01 </wgt>
<wgt id='ctGRe_0p_cQj18_1p_cQj38_1p_cQj11_0p_cjj31_0p_ctu8_0p_ctd8_0p_ctj8_0p_cQu8_0p_cQd8_0p_ctu1_0p_ctd1_0p_ctj1_0p_cQu1_0p_cQd1_0p'> +6.1139206e+01 </wgt>
<wgt id='ctGRe_0p_cQj18_1p_cQj38_0p_cQj11_1p_cjj31_0p_ctu8_0p_ctd8_0p_ctj8_0p_cQu8_0p_cQd8_0p_ctu1_0p_ctd1_0p_ctj1_0p_cQu1_0p_cQd1_0p'> +6.8209248e+01 </wgt>
<wgt id='ctGRe_0p_cQj18_1p_cQj38_0p_cQj11_0p_cjj31_1p_ctu8_0p_ctd8_0p_ctj8_0p_cQu8_0p_cQd8_0p_ctu1_0p_ctd1_0p_ctj1_0p_cQu1_0p_cQd1_0p'> +6.8450727e+01 </wgt>
<wgt id='ctGRe_0p_cQj18_1p_cQj38_0p_cQj11_0p_cjj31_0p_ctu8_1p_ctd8_0p_ctj8_0p_cQu8_0p_cQd8_0p_ctu1_0p_ctd1_0p_ctj1_0p_cQu1_0p_cQd1_0p'> +6.8450727e+01 </wgt>
<wgt id='ctGRe_0p_cQj18_1p_cQj38_0p_cQj11_0p_cjj31_0p_ctu8_0p_ctd8_1p_ctj8_0p_cQu8_0p_cQd8_0p_ctu1_0p_ctd1_0p_ctj1_0p_cQu1_0p_cQd1_0p'> +6.8450727e+01 </wgt>
<wgt id='ctGRe_0p_cQj18_1p_cQj38_0p_cQj11_0p_cjj31_0p_ctu8_0p_ctd8_0p_ctj8_1p_cQu8_0p_cQd8_0p_ctu1_0p_ctd1_0p_ctj1_0p_cQu1_0p_cQd1_0p'> +7.5467839e+01 </wgt>
<wgt id='ctGRe_0p_cQj18_1p_cQj38_0p_cQj11_0p_cjj31_0p_ctu8_0p_ctd8_0p_ctj8_0p_cQu8_1p_cQd8_0p_ctu1_0p_ctd1_0p_ctj1_0p_cQu1_0p_cQd1_0p'> +6.8450727e+01 </wgt>
<wgt id='ctGRe_0p_cQj18_1p_cQj38_0p_cQj11_0p_cjj31_0p_ctu8_0p_ctd8_0p_ctj8_0p_cQu8_0p_cQd8_1p_ctu1_0p_ctd1_0p_ctj1_0p_cQu1_0p_cQd1_0p'> +6.8450727e+01 </wgt>
<wgt id='ctGRe_0p_cQj18_1p_cQj38_0p_cQj11_0p_cjj31_0p_ctu8_0p_ctd8_0p_ctj8_0p_cQu8_0p_cQd8_0p_ctu1_1p_ctd1_0p_ctj1_0p_cQu1_0p_cQd1_0p'> +6.8450727e+01 </wgt>
<wgt id='ctGRe_0p_cQj18_1p_cQj38_0p_cQj11_0p_cjj31_0p_ctu8_0p_ctd8_0p_ctj8_0p_cQu8_0p_cQd8_0p_ctu1_0p_ctd1_1p_ctj1_0p_cQu1_0p_cQd1_0p'> +6.8450727e+01 </wgt>
<wgt id='ctGRe_0p_cQj18_1p_cQj38_0p_cQj11_0p_cjj31_0p_ctu8_0p_ctd8_0p_ctj8_0p_cQu8_0p_cQd8_0p_ctu1_0p_ctd1_0p_ctj1_1p_cQu1_0p_cQd1_0p'> +6.8159021e+01 </wgt>
<wgt id='ctGRe_0p_cQj18_1p_cQj38_0p_cQj11_0p_cjj31_0p_ctu8_0p_ctd8_0p_ctj8_0p_cQu8_0p_cQd8_0p_ctu1_0p_ctd1_0p_ctj1_0p_cQu1_1p_cQd1_0p'> +6.8450727e+01 </wgt>
<wgt id='ctGRe_0p_cQj18_1p_cQj38_0p_cQj11_0p_cjj31_0p_ctu8_0p_ctd8_0p_ctj8_0p_cQu8_0p_cQd8_0p_ctu1_0p_ctd1_0p_ctj1_0p_cQu1_0p_cQd1_1p'> +6.8450727e+01 </wgt>
<wgt id='ctGRe_0p_cQj18_0p_cQj38_2p_cQj11_0p_cjj31_0p_ctu8_0p_ctd8_0p_ctj8_0p_cQu8_0p_cQd8_0p_ctu1_0p_ctd1_0p_ctj1_0p_cQu1_0p_cQd1_0p'> +4.7763480e+01 </wgt>
<wgt id='ctGRe_0p_cQj18_0p_cQj38_1p_cQj11_1p_cjj31_0p_ctu8_0p_ctd8_0p_ctj8_0p_cQu8_0p_cQd8_0p_ctu1_0p_ctd1_0p_ctj1_0p_cQu1_0p_cQd1_0p'> +5.4001977e+01 </wgt>
<wgt id='ctGRe_0p_cQj18_0p_cQj38_1p_cQj11_0p_cjj31_1p_ctu8_0p_ctd8_0p_ctj8_0p_cQu8_0p_cQd8_0p_ctu1_0p_ctd1_0p_ctj1_0p_cQu1_0p_cQd1_0p'> +5.4243457e+01 </wgt>
<wgt id='ctGRe_0p_cQj18_0p_cQj38_1p_cQj11_0p_cjj31_0p_ctu8_1p_ctd8_0p_ctj8_0p_cQu8_0p_cQd8_0p_ctu1_0p_ctd1_0p_ctj1_0p_cQu1_0p_cQd1_0p'> +5.4243457e+01 </wgt>
<wgt id='ctGRe_0p_cQj18_0p_cQj38_1p_cQj11_0p_cjj31_0p_ctu8_0p_ctd8_1p_ctj8_0p_cQu8_0p_cQd8_0p_ctu1_0p_ctd1_0p_ctj1_0p_cQu1_0p_cQd1_0p'> +5.4243457e+01 </wgt>
<wgt id='ctGRe_0p_cQj18_0p_cQj38_1p_cQj11_0p_cjj31_0p_ctu8_0p_ctd8_0p_ctj8_1p_cQu8_0p_cQd8_0p_ctu1_0p_ctd1_0p_ctj1_0p_cQu1_0p_cQd1_0p'> +6.0505724e+01 </wgt>
<wgt id='ctGRe_0p_cQj18_0p_cQj38_1p_cQj11_0p_cjj31_0p_ctu8_0p_ctd8_0p_ctj8_0p_cQu8_1p_cQd8_0p_ctu1_0p_ctd1_0p_ctj1_0p_cQu1_0p_cQd1_0p'> +5.4243457e+01 </wgt>
<wgt id='ctGRe_0p_cQj18_0p_cQj38_1p_cQj11_0p_cjj31_0p_ctu8_0p_ctd8_0p_ctj8_0p_cQu8_0p_cQd8_1p_ctu1_0p_ctd1_0p_ctj1_0p_cQu1_0p_cQd1_0p'> +5.4243457e+01 </wgt>
<wgt id='ctGRe_0p_cQj18_0p_cQj38_1p_cQj11_0p_cjj31_0p_ctu8_0p_ctd8_0p_ctj8_0p_cQu8_0p_cQd8_0p_ctu1_1p_ctd1_0p_ctj1_0p_cQu1_0p_cQd1_0p'> +5.4243457e+01 </wgt>
<wgt id='ctGRe_0p_cQj18_0p_cQj38_1p_cQj11_0p_cjj31_0p_ctu8_0p_ctd8_0p_ctj8_0p_cQu8_0p_cQd8_0p_ctu1_0p_ctd1_1p_ctj1_0p_cQu1_0p_cQd1_0p'> +5.4243457e+01 </wgt>
<wgt id='ctGRe_0p_cQj18_0p_cQj38_1p_cQj11_0p_cjj31_0p_ctu8_0p_ctd8_0p_ctj8_0p_cQu8_0p_cQd8_0p_ctu1_0p_ctd1_0p_ctj1_1p_cQu1_0p_cQd1_0p'> +5.3951751e+01 </wgt>
<wgt id='ctGRe_0p_cQj18_0p_cQj38_1p_cQj11_0p_cjj31_0p_ctu8_0p_ctd8_0p_ctj8_0p_cQu8_0p_cQd8_0p_ctu1_0p_ctd1_0p_ctj1_0p_cQu1_1p_cQd1_0p'> +5.4243457e+01 </wgt>
<wgt id='ctGRe_0p_cQj18_0p_cQj38_1p_cQj11_0p_cjj31_0p_ctu8_0p_ctd8_0p_ctj8_0p_cQu8_0p_cQd8_0p_ctu1_0p_ctd1_0p_ctj1_0p_cQu1_0p_cQd1_1p'> +5.4243457e+01 </wgt>
<wgt id='ctGRe_0p_cQj18_0p_cQj38_0p_cQj11_2p_cjj31_0p_ctu8_0p_ctd8_0p_ctj8_0p_cQu8_0p_cQd8_0p_ctu1_0p_ctd1_0p_ctj1_0p_cQu1_0p_cQd1_0p'> +6.2527223e+01 </wgt>
<wgt id='ctGRe_0p_cQj18_0p_cQj38_0p_cQj11_1p_cjj31_1p_ctu8_0p_ctd8_0p_ctj8_0p_cQu8_0p_cQd8_0p_ctu1_0p_ctd1_0p_ctj1_0p_cQu1_0p_cQd1_0p'> +6.0897726e+01 </wgt>
<wgt id='ctGRe_0p_cQj18_0p_cQj38_0p_cQj11_1p_cjj31_0p_ctu8_1p_ctd8_0p_ctj8_0p_cQu8_0p_cQd8_0p_ctu1_0p_ctd1_0p_ctj1_0p_cQu1_0p_cQd1_0p'> +6.0897726e+01 </wgt>
<wgt id='ctGRe_0p_cQj18_0p_cQj38_0p_cQj11_1p_cjj31_0p_ctu8_0p_ctd8_1p_ctj8_0p_cQu8_0p_cQd8_0p_ctu1_0p_ctd1_0p_ctj1_0p_cQu1_0p_cQd1_0p'> +6.0897726e+01 </wgt>
<wgt id='ctGRe_0p_cQj18_0p_cQj38_0p_cQj11_1p_cjj31_0p_ctu8_0p_ctd8_0p_ctj8_1p_cQu8_0p_cQd8_0p_ctu1_0p_ctd1_0p_ctj1_0p_cQu1_0p_cQd1_0p'> +6.7537416e+01 </wgt>
<wgt id='ctGRe_0p_cQj18_0p_cQj38_0p_cQj11_1p_cjj31_0p_ctu8_0p_ctd8_0p_ctj8_0p_cQu8_1p_cQd8_0p_ctu1_0p_ctd1_0p_ctj1_0p_cQu1_0p_cQd1_0p'> +6.0897726e+01 </wgt>
<wgt id='ctGRe_0p_cQj18_0p_cQj38_0p_cQj11_1p_cjj31_0p_ctu8_0p_ctd8_0p_ctj8_0p_cQu8_0p_cQd8_1p_ctu1_0p_ctd1_0p_ctj1_0p_cQu1_0p_cQd1_0p'> +6.0897726e+01 </wgt>
<wgt id='ctGRe_0p_cQj18_0p_cQj38_0p_cQj11_1p_cjj31_0p_ctu8_0p_ctd8_0p_ctj8_0p_cQu8_0p_cQd8_0p_ctu1_1p_ctd1_0p_ctj1_0p_cQu1_0p_cQd1_0p'> +6.0897726e+01 </wgt>
<wgt id='ctGRe_0p_cQj18_0p_cQj38_0p_cQj11_1p_cjj31_0p_ctu8_0p_ctd8_0p_ctj8_0p_cQu8_0p_cQd8_0p_ctu1_0p_ctd1_1p_ctj1_0p_cQu1_0p_cQd1_0p'> +6.0897726e+01 </wgt>
<wgt id='ctGRe_0p_cQj18_0p_cQj38_0p_cQj11_1p_cjj31_0p_ctu8_0p_ctd8_0p_ctj8_0p_cQu8_0p_cQd8_0p_ctu1_0p_ctd1_0p_ctj1_1p_cQu1_0p_cQd1_0p'> +6.2304419e+01 </wgt>
<wgt id='ctGRe_0p_cQj18_0p_cQj38_0p_cQj11_1p_cjj31_0p_ctu8_0p_ctd8_0p_ctj8_0p_cQu8_0p_cQd8_0p_ctu1_0p_ctd1_0p_ctj1_0p_cQu1_1p_cQd1_0p'> +6.0897726e+01 </wgt>
<wgt id='ctGRe_0p_cQj18_0p_cQj38_0p_cQj11_1p_cjj31_0p_ctu8_0p_ctd8_0p_ctj8_0p_cQu8_0p_cQd8_0p_ctu1_0p_ctd1_0p_ctj1_0p_cQu1_0p_cQd1_1p'> +6.0897726e+01 </wgt>
<wgt id='ctGRe_0p_cQj18_0p_cQj38_0p_cQj11_0p_cjj31_2p_ctu8_0p_ctd8_0p_ctj8_0p_cQu8_0p_cQd8_0p_ctu1_0p_ctd1_0p_ctj1_0p_cQu1_0p_cQd1_0p'> +6.1139206e+01 </wgt>
<wgt id='ctGRe_0p_cQj18_0p_cQj38_0p_cQj11_0p_cjj31_1p_ctu8_1p_ctd8_0p_ctj8_0p_cQu8_0p_cQd8_0p_ctu1_0p_ctd1_0p_ctj1_0p_cQu1_0p_cQd1_0p'> +6.1139206e+01 </wgt>
<wgt id='ctGRe_0p_cQj18_0p_cQj38_0p_cQj11_0p_cjj31_1p_ctu8_0p_ctd8_1p_ctj8_0p_cQu8_0p_cQd8_0p_ctu1_0p_ctd1_0p_ctj1_0p_cQu1_0p_cQd1_0p'> +6.1139206e+01 </wgt>
<wgt id='ctGRe_0p_cQj18_0p_cQj38_0p_cQj11_0p_cjj31_1p_ctu8_0p_ctd8_0p_ctj8_1p_cQu8_0p_cQd8_0p_ctu1_0p_ctd1_0p_ctj1_0p_cQu1_0p_cQd1_0p'> +6.7778895e+01 </wgt>
<wgt id='ctGRe_0p_cQj18_0p_cQj38_0p_cQj11_0p_cjj31_1p_ctu8_0p_ctd8_0p_ctj8_0p_cQu8_1p_cQd8_0p_ctu1_0p_ctd1_0p_ctj1_0p_cQu1_0p_cQd1_0p'> +6.1139206e+01 </wgt>
<wgt id='ctGRe_0p_cQj18_0p_cQj38_0p_cQj11_0p_cjj31_1p_ctu8_0p_ctd8_0p_ctj8_0p_cQu8_0p_cQd8_1p_ctu1_0p_ctd1_0p_ctj1_0p_cQu1_0p_cQd1_0p'> +6.1139206e+01 </wgt>
<wgt id='ctGRe_0p_cQj18_0p_cQj38_0p_cQj11_0p_cjj31_1p_ctu8_0p_ctd8_0p_ctj8_0p_cQu8_0p_cQd8_0p_ctu1_1p_ctd1_0p_ctj1_0p_cQu1_0p_cQd1_0p'> +6.1139206e+01 </wgt>
<wgt id='ctGRe_0p_cQj18_0p_cQj38_0p_cQj11_0p_cjj31_1p_ctu8_0p_ctd8_0p_ctj8_0p_cQu8_0p_cQd8_0p_ctu1_0p_ctd1_1p_ctj1_0p_cQu1_0p_cQd1_0p'> +6.1139206e+01 </wgt>
<wgt id='ctGRe_0p_cQj18_0p_cQj38_0p_cQj11_0p_cjj31_1p_ctu8_0p_ctd8_0p_ctj8_0p_cQu8_0p_cQd8_0p_ctu1_0p_ctd1_0p_ctj1_1p_cQu1_0p_cQd1_0p'> +6.0847500e+01 </wgt>
<wgt id='ctGRe_0p_cQj18_0p_cQj38_0p_cQj11_0p_cjj31_1p_ctu8_0p_ctd8_0p_ctj8_0p_cQu8_0p_cQd8_0p_ctu1_0p_ctd1_0p_ctj1_0p_cQu1_1p_cQd1_0p'> +6.1139206e+01 </wgt>
<wgt id='ctGRe_0p_cQj18_0p_cQj38_0p_cQj11_0p_cjj31_1p_ctu8_0p_ctd8_0p_ctj8_0p_cQu8_0p_cQd8_0p_ctu1_0p_ctd1_0p_ctj1_0p_cQu1_0p_cQd1_1p'> +6.1139206e+01 </wgt>
<wgt id='ctGRe_0p_cQj18_0p_cQj38_0p_cQj11_0p_cjj31_0p_ctu8_2p_ctd8_0p_ctj8_0p_cQu8_0p_cQd8_0p_ctu1_0p_ctd1_0p_ctj1_0p_cQu1_0p_cQd1_0p'> +6.1139206e+01 </wgt>
<wgt id='ctGRe_0p_cQj18_0p_cQj38_0p_cQj11_0p_cjj31_0p_ctu8_1p_ctd8_1p_ctj8_0p_cQu8_0p_cQd8_0p_ctu1_0p_ctd1_0p_ctj1_0p_cQu1_0p_cQd1_0p'> +6.1139206e+01 </wgt>
<wgt id='ctGRe_0p_cQj18_0p_cQj38_0p_cQj11_0p_cjj31_0p_ctu8_1p_ctd8_0p_ctj8_1p_cQu8_0p_cQd8_0p_ctu1_0p_ctd1_0p_ctj1_0p_cQu1_0p_cQd1_0p'> +6.7778895e+01 </wgt>
<wgt id='ctGRe_0p_cQj18_0p_cQj38_0p_cQj11_0p_cjj31_0p_ctu8_1p_ctd8_0p_ctj8_0p_cQu8_1p_cQd8_0p_ctu1_0p_ctd1_0p_ctj1_0p_cQu1_0p_cQd1_0p'> +6.1139206e+01 </wgt>
<wgt id='ctGRe_0p_cQj18_0p_cQj38_0p_cQj11_0p_cjj31_0p_ctu8_1p_ctd8_0p_ctj8_0p_cQu8_0p_cQd8_1p_ctu1_0p_ctd1_0p_ctj1_0p_cQu1_0p_cQd1_0p'> +6.1139206e+01 </wgt>
<wgt id='ctGRe_0p_cQj18_0p_cQj38_0p_cQj11_0p_cjj31_0p_ctu8_1p_ctd8_0p_ctj8_0p_cQu8_0p_cQd8_0p_ctu1_1p_ctd1_0p_ctj1_0p_cQu1_0p_cQd1_0p'> +6.1139206e+01 </wgt>
<wgt id='ctGRe_0p_cQj18_0p_cQj38_0p_cQj11_0p_cjj31_0p_ctu8_1p_ctd8_0p_ctj8_0p_cQu8_0p_cQd8_0p_ctu1_0p_ctd1_1p_ctj1_0p_cQu1_0p_cQd1_0p'> +6.1139206e+01 </wgt>
<wgt id='ctGRe_0p_cQj18_0p_cQj38_0p_cQj11_0p_cjj31_0p_ctu8_1p_ctd8_0p_ctj8_0p_cQu8_0p_cQd8_0p_ctu1_0p_ctd1_0p_ctj1_1p_cQu1_0p_cQd1_0p'> +6.0847500e+01 </wgt>
<wgt id='ctGRe_0p_cQj18_0p_cQj38_0p_cQj11_0p_cjj31_0p_ctu8_1p_ctd8_0p_ctj8_0p_cQu8_0p_cQd8_0p_ctu1_0p_ctd1_0p_ctj1_0p_cQu1_1p_cQd1_0p'> +6.1139206e+01 </wgt>
<wgt id='ctGRe_0p_cQj18_0p_cQj38_0p_cQj11_0p_cjj31_0p_ctu8_1p_ctd8_0p_ctj8_0p_cQu8_0p_cQd8_0p_ctu1_0p_ctd1_0p_ctj1_0p_cQu1_0p_cQd1_1p'> +6.1139206e+01 </wgt>
<wgt id='ctGRe_0p_cQj18_0p_cQj38_0p_cQj11_0p_cjj31_0p_ctu8_0p_ctd8_2p_ctj8_0p_cQu8_0p_cQd8_0p_ctu1_0p_ctd1_0p_ctj1_0p_cQu1_0p_cQd1_0p'> +6.1139206e+01 </wgt>
<wgt id='ctGRe_0p_cQj18_0p_cQj38_0p_cQj11_0p_cjj31_0p_ctu8_0p_ctd8_1p_ctj8_1p_cQu8_0p_cQd8_0p_ctu1_0p_ctd1_0p_ctj1_0p_cQu1_0p_cQd1_0p'> +6.7778895e+01 </wgt>
<wgt id='ctGRe_0p_cQj18_0p_cQj38_0p_cQj11_0p_cjj31_0p_ctu8_0p_ctd8_1p_ctj8_0p_cQu8_1p_cQd8_0p_ctu1_0p_ctd1_0p_ctj1_0p_cQu1_0p_cQd1_0p'> +6.1139206e+01 </wgt>
<wgt id='ctGRe_0p_cQj18_0p_cQj38_0p_cQj11_0p_cjj31_0p_ctu8_0p_ctd8_1p_ctj8_0p_cQu8_0p_cQd8_1p_ctu1_0p_ctd1_0p_ctj1_0p_cQu1_0p_cQd1_0p'> +6.1139206e+01 </wgt>
<wgt id='ctGRe_0p_cQj18_0p_cQj38_0p_cQj11_0p_cjj31_0p_ctu8_0p_ctd8_1p_ctj8_0p_cQu8_0p_cQd8_0p_ctu1_1p_ctd1_0p_ctj1_0p_cQu1_0p_cQd1_0p'> +6.1139206e+01 </wgt>
<wgt id='ctGRe_0p_cQj18_0p_cQj38_0p_cQj11_0p_cjj31_0p_ctu8_0p_ctd8_1p_ctj8_0p_cQu8_0p_cQd8_0p_ctu1_0p_ctd1_1p_ctj1_0p_cQu1_0p_cQd1_0p'> +6.1139206e+01 </wgt>
<wgt id='ctGRe_0p_cQj18_0p_cQj38_0p_cQj11_0p_cjj31_0p_ctu8_0p_ctd8_1p_ctj8_0p_cQu8_0p_cQd8_0p_ctu1_0p_ctd1_0p_ctj1_1p_cQu1_0p_cQd1_0p'> +6.0847500e+01 </wgt>
<wgt id='ctGRe_0p_cQj18_0p_cQj38_0p_cQj11_0p_cjj31_0p_ctu8_0p_ctd8_1p_ctj8_0p_cQu8_0p_cQd8_0p_ctu1_0p_ctd1_0p_ctj1_0p_cQu1_1p_cQd1_0p'> +6.1139206e+01 </wgt>
<wgt id='ctGRe_0p_cQj18_0p_cQj38_0p_cQj11_0p_cjj31_0p_ctu8_0p_ctd8_1p_ctj8_0p_cQu8_0p_cQd8_0p_ctu1_0p_ctd1_0p_ctj1_0p_cQu1_0p_cQd1_1p'> +6.1139206e+01 </wgt>
<wgt id='ctGRe_0p_cQj18_0p_cQj38_0p_cQj11_0p_cjj31_0p_ctu8_0p_ctd8_0p_ctj8_2p_cQu8_0p_cQd8_0p_ctu1_0p_ctd1_0p_ctj1_0p_cQu1_0p_cQd1_0p'> +7.4763307e+01 </wgt>
<wgt id='ctGRe_0p_cQj18_0p_cQj38_0p_cQj11_0p_cjj31_0p_ctu8_0p_ctd8_0p_ctj8_1p_cQu8_1p_cQd8_0p_ctu1_0p_ctd1_0p_ctj1_0p_cQu1_0p_cQd1_0p'> +6.7778895e+01 </wgt>
<wgt id='ctGRe_0p_cQj18_0p_cQj38_0p_cQj11_0p_cjj31_0p_ctu8_0p_ctd8_0p_ctj8_1p_cQu8_0p_cQd8_1p_ctu1_0p_ctd1_0p_ctj1_0p_cQu1_0p_cQd1_0p'> +6.7778895e+01 </wgt>
<wgt id='ctGRe_0p_cQj18_0p_cQj38_0p_cQj11_0p_cjj31_0p_ctu8_0p_ctd8_0p_ctj8_1p_cQu8_0p_cQd8_0p_ctu1_1p_ctd1_0p_ctj1_0p_cQu1_0p_cQd1_0p'> +6.7778895e+01 </wgt>
<wgt id='ctGRe_0p_cQj18_0p_cQj38_0p_cQj11_0p_cjj31_0p_ctu8_0p_ctd8_0p_ctj8_1p_cQu8_0p_cQd8_0p_ctu1_0p_ctd1_1p_ctj1_0p_cQu1_0p_cQd1_0p'> +6.7778895e+01 </wgt>
<wgt id='ctGRe_0p_cQj18_0p_cQj38_0p_cQj11_0p_cjj31_0p_ctu8_0p_ctd8_0p_ctj8_1p_cQu8_0p_cQd8_0p_ctu1_0p_ctd1_0p_ctj1_1p_cQu1_0p_cQd1_0p'> +6.7487189e+01 </wgt>
<wgt id='ctGRe_0p_cQj18_0p_cQj38_0p_cQj11_0p_cjj31_0p_ctu8_0p_ctd8_0p_ctj8_1p_cQu8_0p_cQd8_0p_ctu1_0p_ctd1_0p_ctj1_0p_cQu1_1p_cQd1_0p'> +6.7778895e+01 </wgt>
<wgt id='ctGRe_0p_cQj18_0p_cQj38_0p_cQj11_0p_cjj31_0p_ctu8_0p_ctd8_0p_ctj8_1p_cQu8_0p_cQd8_0p_ctu1_0p_ctd1_0p_ctj1_0p_cQu1_0p_cQd1_1p'> +6.7778895e+01 </wgt>
<wgt id='ctGRe_0p_cQj18_0p_cQj38_0p_cQj11_0p_cjj31_0p_ctu8_0p_ctd8_0p_ctj8_0p_cQu8_2p_cQd8_0p_ctu1_0p_ctd1_0p_ctj1_0p_cQu1_0p_cQd1_0p'> +6.1139206e+01 </wgt>
<wgt id='ctGRe_0p_cQj18_0p_cQj38_0p_cQj11_0p_cjj31_0p_ctu8_0p_ctd8_0p_ctj8_0p_cQu8_1p_cQd8_1p_ctu1_0p_ctd1_0p_ctj1_0p_cQu1_0p_cQd1_0p'> +6.1139206e+01 </wgt>
<wgt id='ctGRe_0p_cQj18_0p_cQj38_0p_cQj11_0p_cjj31_0p_ctu8_0p_ctd8_0p_ctj8_0p_cQu8_1p_cQd8_0p_ctu1_1p_ctd1_0p_ctj1_0p_cQu1_0p_cQd1_0p'> +6.1139206e+01 </wgt>
<wgt id='ctGRe_0p_cQj18_0p_cQj38_0p_cQj11_0p_cjj31_0p_ctu8_0p_ctd8_0p_ctj8_0p_cQu8_1p_cQd8_0p_ctu1_0p_ctd1_1p_ctj1_0p_cQu1_0p_cQd1_0p'> +6.1139206e+01 </wgt>
<wgt id='ctGRe_0p_cQj18_0p_cQj38_0p_cQj11_0p_cjj31_0p_ctu8_0p_ctd8_0p_ctj8_0p_cQu8_1p_cQd8_0p_ctu1_0p_ctd1_0p_ctj1_1p_cQu1_0p_cQd1_0p'> +6.0847500e+01 </wgt>
<wgt id='ctGRe_0p_cQj18_0p_cQj38_0p_cQj11_0p_cjj31_0p_ctu8_0p_ctd8_0p_ctj8_0p_cQu8_1p_cQd8_0p_ctu1_0p_ctd1_0p_ctj1_0p_cQu1_1p_cQd1_0p'> +6.1139206e+01 </wgt>
<wgt id='ctGRe_0p_cQj18_0p_cQj38_0p_cQj11_0p_cjj31_0p_ctu8_0p_ctd8_0p_ctj8_0p_cQu8_1p_cQd8_0p_ctu1_0p_ctd1_0p_ctj1_0p_cQu1_0p_cQd1_1p'> +6.1139206e+01 </wgt>
<wgt id='ctGRe_0p_cQj18_0p_cQj38_0p_cQj11_0p_cjj31_0p_ctu8_0p_ctd8_0p_ctj8_0p_cQu8_0p_cQd8_2p_ctu1_0p_ctd1_0p_ctj1_0p_cQu1_0p_cQd1_0p'> +6.1139206e+01 </wgt>
<wgt id='ctGRe_0p_cQj18_0p_cQj38_0p_cQj11_0p_cjj31_0p_ctu8_0p_ctd8_0p_ctj8_0p_cQu8_0p_cQd8_1p_ctu1_1p_ctd1_0p_ctj1_0p_cQu1_0p_cQd1_0p'> +6.1139206e+01 </wgt>
<wgt id='ctGRe_0p_cQj18_0p_cQj38_0p_cQj11_0p_cjj31_0p_ctu8_0p_ctd8_0p_ctj8_0p_cQu8_0p_cQd8_1p_ctu1_0p_ctd1_1p_ctj1_0p_cQu1_0p_cQd1_0p'> +6.1139206e+01 </wgt>
<wgt id='ctGRe_0p_cQj18_0p_cQj38_0p_cQj11_0p_cjj31_0p_ctu8_0p_ctd8_0p_ctj8_0p_cQu8_0p_cQd8_1p_ctu1_0p_ctd1_0p_ctj1_1p_cQu1_0p_cQd1_0p'> +6.0847500e+01 </wgt>
<wgt id='ctGRe_0p_cQj18_0p_cQj38_0p_cQj11_0p_cjj31_0p_ctu8_0p_ctd8_0p_ctj8_0p_cQu8_0p_cQd8_1p_ctu1_0p_ctd1_0p_ctj1_0p_cQu1_1p_cQd1_0p'> +6.1139206e+01 </wgt>
<wgt id='ctGRe_0p_cQj18_0p_cQj38_0p_cQj11_0p_cjj31_0p_ctu8_0p_ctd8_0p_ctj8_0p_cQu8_0p_cQd8_1p_ctu1_0p_ctd1_0p_ctj1_0p_cQu1_0p_cQd1_1p'> +6.1139206e+01 </wgt>
<wgt id='ctGRe_0p_cQj18_0p_cQj38_0p_cQj11_0p_cjj31_0p_ctu8_0p_ctd8_0p_ctj8_0p_cQu8_0p_cQd8_0p_ctu1_2p_ctd1_0p_ctj1_0p_cQu1_0p_cQd1_0p'> +6.1139206e+01 </wgt>
<wgt id='ctGRe_0p_cQj18_0p_cQj38_0p_cQj11_0p_cjj31_0p_ctu8_0p_ctd8_0p_ctj8_0p_cQu8_0p_cQd8_0p_ctu1_1p_ctd1_1p_ctj1_0p_cQu1_0p_cQd1_0p'> +6.1139206e+01 </wgt>
<wgt id='ctGRe_0p_cQj18_0p_cQj38_0p_cQj11_0p_cjj31_0p_ctu8_0p_ctd8_0p_ctj8_0p_cQu8_0p_cQd8_0p_ctu1_1p_ctd1_0p_ctj1_1p_cQu1_0p_cQd1_0p'> +6.0847500e+01 </wgt>
<wgt id='ctGRe_0p_cQj18_0p_cQj38_0p_cQj11_0p_cjj31_0p_ctu8_0p_ctd8_0p_ctj8_0p_cQu8_0p_cQd8_0p_ctu1_1p_ctd1_0p_ctj1_0p_cQu1_1p_cQd1_0p'> +6.1139206e+01 </wgt>
<wgt id='ctGRe_0p_cQj18_0p_cQj38_0p_cQj11_0p_cjj31_0p_ctu8_0p_ctd8_0p_ctj8_0p_cQu8_0p_cQd8_0p_ctu1_1p_ctd1_0p_ctj1_0p_cQu1_0p_cQd1_1p'> +6.1139206e+01 </wgt>
<wgt id='ctGRe_0p_cQj18_0p_cQj38_0p_cQj11_0p_cjj31_0p_ctu8_0p_ctd8_0p_ctj8_0p_cQu8_0p_cQd8_0p_ctu1_0p_ctd1_2p_ctj1_0p_cQu1_0p_cQd1_0p'> +6.1139206e+01 </wgt>
<wgt id='ctGRe_0p_cQj18_0p_cQj38_0p_cQj11_0p_cjj31_0p_ctu8_0p_ctd8_0p_ctj8_0p_cQu8_0p_cQd8_0p_ctu1_0p_ctd1_1p_ctj1_1p_cQu1_0p_cQd1_0p'> +6.0847500e+01 </wgt>
<wgt id='ctGRe_0p_cQj18_0p_cQj38_0p_cQj11_0p_cjj31_0p_ctu8_0p_ctd8_0p_ctj8_0p_cQu8_0p_cQd8_0p_ctu1_0p_ctd1_1p_ctj1_0p_cQu1_1p_cQd1_0p'> +6.1139206e+01 </wgt>
<wgt id='ctGRe_0p_cQj18_0p_cQj38_0p_cQj11_0p_cjj31_0p_ctu8_0p_ctd8_0p_ctj8_0p_cQu8_0p_cQd8_0p_ctu1_0p_ctd1_1p_ctj1_0p_cQu1_0p_cQd1_1p'> +6.1139206e+01 </wgt>
<wgt id='ctGRe_0p_cQj18_0p_cQj38_0p_cQj11_0p_cjj31_0p_ctu8_0p_ctd8_0p_ctj8_0p_cQu8_0p_cQd8_0p_ctu1_0p_ctd1_0p_ctj1_2p_cQu1_0p_cQd1_0p'> +6.2107043e+01 </wgt>
<wgt id='ctGRe_0p_cQj18_0p_cQj38_0p_cQj11_0p_cjj31_0p_ctu8_0p_ctd8_0p_ctj8_0p_cQu8_0p_cQd8_0p_ctu1_0p_ctd1_0p_ctj1_1p_cQu1_1p_cQd1_0p'> +6.0847500e+01 </wgt>
<wgt id='ctGRe_0p_cQj18_0p_cQj38_0p_cQj11_0p_cjj31_0p_ctu8_0p_ctd8_0p_ctj8_0p_cQu8_0p_cQd8_0p_ctu1_0p_ctd1_0p_ctj1_1p_cQu1_0p_cQd1_1p'> +6.0847500e+01 </wgt>
<wgt id='ctGRe_0p_cQj18_0p_cQj38_0p_cQj11_0p_cjj31_0p_ctu8_0p_ctd8_0p_ctj8_0p_cQu8_0p_cQd8_0p_ctu1_0p_ctd1_0p_ctj1_0p_cQu1_2p_cQd1_0p'> +6.1139206e+01 </wgt>
<wgt id='ctGRe_0p_cQj18_0p_cQj38_0p_cQj11_0p_cjj31_0p_ctu8_0p_ctd8_0p_ctj8_0p_cQu8_0p_cQd8_0p_ctu1_0p_ctd1_0p_ctj1_0p_cQu1_1p_cQd1_1p'> +6.1139206e+01 </wgt>
<wgt id='ctGRe_0p_cQj18_0p_cQj38_0p_cQj11_0p_cjj31_0p_ctu8_0p_ctd8_0p_ctj8_0p_cQu8_0p_cQd8_0p_ctu1_0p_ctd1_0p_ctj1_0p_cQu1_0p_cQd1_2p'> +6.1139206e+01 </wgt>
<wgt id='1001'> +6.1139206e+01 </wgt>
<wgt id='1002'> +5.3509737e+01 </wgt>
<wgt id='1003'> +5.3501527e+01 </wgt>
<wgt id='1004'> +6.3596108e+01 </wgt>
<wgt id='1005'> +5.1302718e+01 </wgt>
<wgt id='1006'> +5.1109541e+01 </wgt>
<wgt id='1007'> +4.5276488e+01 </wgt>
<wgt id='1008'> +4.5270147e+01 </wgt>
<wgt id='1009'> +5.2961044e+01 </wgt>
<wgt id='1010'> +4.3565325e+01 </wgt>
<wgt id='1011'> +7.4503934e+01 </wgt>
<wgt id='1012'> +6.4256009e+01 </wgt>
<wgt id='1013'> +6.4245125e+01 </wgt>
<wgt id='1014'> +7.7859567e+01 </wgt>
<wgt id='1015'> +6.1338824e+01 </wgt>
<wgt id='1016'> +6.1681444e+01 </wgt>
<wgt id='1017'> +5.3771818e+01 </wgt>
<wgt id='1018'> +5.3763350e+01 </wgt>
<wgt id='1019'> +6.4245125e+01 </wgt>
<wgt id='1020'> +5.1498120e+01 </wgt>
<wgt id='1021'> +5.1562826e+01 </wgt>
<wgt id='1022'> +4.5498244e+01 </wgt>
<wgt id='1023'> +4.5491688e+01 </wgt>
<wgt id='1024'> +5.3501527e+01 </wgt>
<wgt id='1025'> +4.3731257e+01 </wgt>
<wgt id='1026'> +7.5164703e+01 </wgt>
<wgt id='1027'> +6.4570723e+01 </wgt>
<wgt id='1028'> +6.4559524e+01 </wgt>
<wgt id='1029'> +7.8654147e+01 </wgt>
<wgt id='1030'> +6.1572451e+01 </wgt>
<wgt id='1031'> +6.0198182e+01 </wgt>
<wgt id='1032'> +5.2968874e+01 </wgt>
<wgt id='1033'> +5.2961044e+01 </wgt>
<wgt id='1034'> +6.2504302e+01 </wgt>
<wgt id='1035'> +5.0860734e+01 </wgt>
<wgt id='1036'> +5.0322888e+01 </wgt>
<wgt id='1037'> +4.4818845e+01 </wgt>
<wgt id='1038'> +4.4812819e+01 </wgt>
<wgt id='1039'> +5.2051819e+01 </wgt>
<wgt id='1040'> +4.3190000e+01 </wgt>
<wgt id='1041'> +7.3357207e+01 </wgt>
<wgt id='1042'> +6.3606525e+01 </wgt>
<wgt id='1043'> +6.3596108e+01 </wgt>
<wgt id='1044'> +7.6522889e+01 </wgt>
<wgt id='1045'> +6.0810376e+01 </wgt>
<wgt id='1046'> +6.1139206e+01 </wgt>
<wgt id='1047'> +6.1139206e+01 </wgt>
<wgt id='1048'> +6.1139206e+01 </wgt>
<wgt id='1049'> +6.1222810e+01 </wgt>
<wgt id='1050'> +6.1070348e+01 </wgt>
<wgt id='1051'> +6.0956844e+01 </wgt>
<wgt id='1052'> +6.1095369e+01 </wgt>
<wgt id='1053'> +6.1166114e+01 </wgt>
<wgt id='1054'> +6.1111778e+01 </wgt>
<wgt id='1055'> +6.0694412e+01 </wgt>
<wgt id='1056'> +6.0814128e+01 </wgt>
<wgt id='1057'> +6.1122359e+01 </wgt>
<wgt id='1058'> +6.0914036e+01 </wgt>
<wgt id='1059'> +6.1048281e+01 </wgt>
<wgt id='1060'> +6.1266986e+01 </wgt>
<wgt id='1061'> +6.1315179e+01 </wgt>
<wgt id='1062'> +6.1283332e+01 </wgt>
<wgt id='1063'> +6.1674825e+01 </wgt>
<wgt id='1064'> +6.0939719e+01 </wgt>
<wgt id='1065'> +6.1230973e+01 </wgt>
<wgt id='1066'> +6.0813199e+01 </wgt>
<wgt id='1067'> +6.1454050e+01 </wgt>
<wgt id='1068'> +6.1568266e+01 </wgt>
<wgt id='1069'> +6.0991074e+01 </wgt>
<wgt id='1070'> +6.1247696e+01 </wgt>
<wgt id='1071'> +6.0825804e+01 </wgt>
<wgt id='1072'> +6.1085870e+01 </wgt>
<wgt id='1073'> +6.0803537e+01 </wgt>
<wgt id='1074'> +6.1192351e+01 </wgt>
<wgt id='1075'> +6.1465158e+01 </wgt>
<wgt id='1076'> +6.1369002e+01 </wgt>
<wgt id='1077'> +6.1599901e+01 </wgt>
<wgt id='1078'> +6.0877695e+01 </wgt>
<wgt id='1079'> +6.1936515e+01 </wgt>
<wgt id='1080'> +6.1192429e+01 </wgt>
<wgt id='1081'> +6.1418476e+01 </wgt>
<wgt id='1082'> +6.1465989e+01 </wgt>
<wgt id='1083'> +6.0894653e+01 </wgt>
<wgt id='1084'> +6.0531313e+01 </wgt>
<wgt id='1085'> +6.1507531e+01 </wgt>
<wgt id='1086'> +6.0956778e+01 </wgt>
<wgt id='1087'> +6.0953459e+01 </wgt>
<wgt id='1088'> +6.1230160e+01 </wgt>
<wgt id='1089'> +6.1186280e+01 </wgt>
<wgt id='1090'> +6.1179561e+01 </wgt>
<wgt id='1091'> +6.1138255e+01 </wgt>
<wgt id='1092'> +6.0958334e+01 </wgt>
<wgt id='1093'> +6.1248045e+01 </wgt>
<wgt id='1094'> +6.1086676e+01 </wgt>
<wgt id='1095'> +6.1122140e+01 </wgt>
<wgt id='1096'> +6.0950137e+01 </wgt>
<wgt id='1097'> +6.1032781e+01 </wgt>
<wgt id='1098'> +6.0910769e+01 </wgt>
<wgt id='1099'> +6.1094499e+01 </wgt>
<wgt id='1100'> +6.1163952e+01 </wgt>
<wgt id='1101'> +6.1239596e+01 </wgt>
<wgt id='1102'> +6.1227854e+01 </wgt>
<wgt id='1103'> +6.1390350e+01 </wgt>
<wgt id='1104'> +6.1014028e+01 </wgt>
<wgt id='1105'> +6.1175232e+01 </wgt>
<wgt id='1106'> +6.1358531e+01 </wgt>
<wgt id='1107'> +6.1212862e+01 </wgt>
<wgt id='1108'> +6.1216321e+01 </wgt>
<wgt id='1109'> +6.1358034e+01 </wgt>
<wgt id='1110'> +6.1285501e+01 </wgt>
<wgt id='1111'> +6.1092196e+01 </wgt>
<wgt id='1112'> +6.1192173e+01 </wgt>
<wgt id='1113'> +6.1275531e+01 </wgt>
<wgt id='1114'> +6.1229081e+01 </wgt>
<wgt id='1115'> +6.1202871e+01 </wgt>
<wgt id='1116'> +6.1116520e+01 </wgt>
<wgt id='1117'> +6.1088283e+01 </wgt>
<wgt id='1118'> +6.1209702e+01 </wgt>
<wgt id='1119'> +6.1191132e+01 </wgt>
<wgt id='1120'> +6.1121438e+01 </wgt>
<wgt id='1121'> +6.1160158e+01 </wgt>
<wgt id='1122'> +6.1081365e+01 </wgt>
<wgt id='1123'> +6.1131057e+01 </wgt>
<wgt id='1124'> +6.1059441e+01 </wgt>
<wgt id='1125'> +6.1191063e+01 </wgt>
<wgt id='1126'> +6.1075617e+01 </wgt>
<wgt id='1127'> +6.1064811e+01 </wgt>
<wgt id='1128'> +6.1148419e+01 </wgt>
<wgt id='1129'> +6.1122871e+01 </wgt>
<wgt id='1130'> +6.1225769e+01 </wgt>
<wgt id='1131'> +6.1255488e+01 </wgt>
<wgt id='1132'> +6.1109619e+01 </wgt>
<wgt id='1133'> +6.1141569e+01 </wgt>
<wgt id='1134'> +6.1099848e+01 </wgt>
<wgt id='1135'> +6.1201742e+01 </wgt>
<wgt id='1136'> +6.1182700e+01 </wgt>
<wgt id='1137'> +6.1175319e+01 </wgt>
<wgt id='1138'> +6.1171255e+01 </wgt>
<wgt id='1139'> +6.1141888e+01 </wgt>
<wgt id='1140'> +6.1155666e+01 </wgt>
<wgt id='1141'> +6.1132105e+01 </wgt>
<wgt id='1142'> +6.1135750e+01 </wgt>
<wgt id='1143'> +6.1144096e+01 </wgt>
<wgt id='1144'> +6.1141325e+01 </wgt>
<wgt id='1145'> +6.1141951e+01 </wgt>
<wgt id='1146'> +6.1127039e+01 </wgt>
<wgt id='1147'> +6.1191040e+01 </wgt>
<wgt id='1148'> +6.1139206e+01 </wgt>
<wgt id='1149'> +5.9352916e+01 </wgt>
<wgt id='1150'> +6.3023933e+01 </wgt>
<wgt id='1151'> +6.1139206e+01 </wgt>
<wgt id='1152'> +6.4291740e+01 </wgt>
<wgt id='1153'> +6.2884423e+01 </wgt>
<wgt id='1154'> +5.8965149e+01 </wgt>
<wgt id='1155'> +6.0415131e+01 </wgt>
<wgt id='1156'> +6.1620756e+01 </wgt>
<wgt id='1157'> +6.4405416e+01 </wgt>
<wgt id='1158'> +6.2846627e+01 </wgt>
<wgt id='1159'> +5.9086216e+01 </wgt>
<wgt id='1160'> +6.2271614e+01 </wgt>
<wgt id='1161'> +5.6912491e+01 </wgt>
<wgt id='1162'> +5.8980337e+01 </wgt>
<wgt id='1163'> +6.0181804e+01 </wgt>
<wgt id='1164'> +5.8998023e+01 </wgt>
<wgt id='1165'> +6.0170157e+01 </wgt>
<wgt id='1166'> +6.2375699e+01 </wgt>
<wgt id='1167'> +6.1121093e+01 </wgt>
<wgt id='1168'> +6.1803790e+01 </wgt>
<wgt id='1169'> +6.1535224e+01 </wgt>
<wgt id='1170'> +6.2288290e+01 </wgt>
<wgt id='1171'> +5.9022299e+01 </wgt>
<wgt id='1172'> +6.2375198e+01 </wgt>
<wgt id='1173'> +6.3966568e+01 </wgt>
<wgt id='1174'> +6.3561277e+01 </wgt>
<wgt id='1175'> +5.9067851e+01 </wgt>
<wgt id='1176'> +6.2529417e+01 </wgt>
<wgt id='1177'> +6.0888294e+01 </wgt>
<wgt id='1178'> +6.0594653e+01 </wgt>
<wgt id='1179'> +6.2285294e+01 </wgt>
<wgt id='1180'> +5.9818443e+01 </wgt>
<wgt id='1181'> +6.3073158e+01 </wgt>
<wgt id='1182'> +6.2895363e+01 </wgt>
<wgt id='1183'> +6.2119672e+01 </wgt>
<wgt id='1184'> +6.5817925e+01 </wgt>
<wgt id='1185'> +5.8316346e+01 </wgt>
<wgt id='1186'> +6.0151022e+01 </wgt>
<wgt id='1187'> +6.1963563e+01 </wgt>
<wgt id='1188'> +6.0361703e+01 </wgt>
<wgt id='1189'> +6.0342201e+01 </wgt>
<wgt id='1190'> +6.0828144e+01 </wgt>
<wgt id='1191'> +6.0427367e+01 </wgt>
<wgt id='1192'> +6.2389398e+01 </wgt>
<wgt id='1193'> +6.2892856e+01 </wgt>
<wgt id='1194'> +6.2346018e+01 </wgt>
<wgt id='1195'> +6.2358261e+01 </wgt>
<wgt id='1196'> +5.9546637e+01 </wgt>
<wgt id='1197'> +6.1462829e+01 </wgt>
<wgt id='1198'> +6.2736698e+01 </wgt>
<wgt id='1199'> +5.8830692e+01 </wgt>
<wgt id='1200'> +6.3556763e+01 </wgt>
<wgt id='1201'> +6.1104176e+01 </wgt>
<wgt id='1202'> +5.9693865e+01 </wgt>
<wgt id='1203'> +6.2661421e+01 </wgt>
<wgt id='1204'> +6.1168630e+01 </wgt>
<wgt id='1205'> +6.2480562e+01 </wgt>
<wgt id='1206'> +5.9121883e+01 </wgt>
<wgt id='1207'> +6.1661357e+01 </wgt>
<wgt id='1208'> +6.2792000e+01 </wgt>
<wgt id='1209'> +6.3961025e+01 </wgt>
<wgt id='1210'> +6.0726829e+01 </wgt>
<wgt id='1211'> +6.2692031e+01 </wgt>
<wgt id='1212'> +6.2077735e+01 </wgt>
<wgt id='1213'> +6.2217653e+01 </wgt>
<wgt id='1214'> +5.9037394e+01 </wgt>
<wgt id='1215'> +5.8962318e+01 </wgt>
<wgt id='1216'> +6.3022693e+01 </wgt>
<wgt id='1217'> +6.0051461e+01 </wgt>
<wgt id='1218'> +6.0794305e+01 </wgt>
<wgt id='1219'> +6.3285380e+01 </wgt>
<wgt id='1220'> +6.1550110e+01 </wgt>
<wgt id='1221'> +6.0329195e+01 </wgt>
<wgt id='1222'> +6.3014925e+01 </wgt>
<wgt id='1223'> +5.8202554e+01 </wgt>
<wgt id='1224'> +5.9974665e+01 </wgt>
<wgt id='1225'> +5.8340877e+01 </wgt>
<wgt id='1226'> +5.9801895e+01 </wgt>
<wgt id='1227'> +6.2444700e+01 </wgt>
<wgt id='1228'> +6.0819663e+01 </wgt>
<wgt id='1229'> +6.3697922e+01 </wgt>
<wgt id='1230'> +6.1951857e+01 </wgt>
<wgt id='1231'> +5.8761556e+01 </wgt>
<wgt id='1232'> +6.1848073e+01 </wgt>
<wgt id='1233'> +6.1121093e+01 </wgt>
<wgt id='1234'> +5.6022410e+01 </wgt>
<wgt id='1235'> +5.9793018e+01 </wgt>
<wgt id='1236'> +6.1439499e+01 </wgt>
<wgt id='1237'> +6.3848571e+01 </wgt>
<wgt id='1238'> +6.0193509e+01 </wgt>
<wgt id='1239'> +6.1181948e+01 </wgt>
<wgt id='1240'> +5.2765884e+01 </wgt>
<wgt id='1241'> +6.1747754e+01 </wgt>
<wgt id='1242'> +6.2249722e+01 </wgt>
<wgt id='1243'> +5.8300665e+01 </wgt>
<wgt id='1244'> +5.9385585e+01 </wgt>
<wgt id='1245'> +6.1536481e+01 </wgt>
<wgt id='1246'> +6.1419237e+01 </wgt>
<wgt id='1247'> +6.3251151e+01 </wgt>
<wgt id='1248'> +6.0569220e+01 </wgt>
<wgt id='1249'> +6.0154053e+01 </wgt>
<wgt id='1250'> +6.0785863e+01 </wgt>
<wgt id='1251'> +6.2906460e+01 </wgt>
<wgt id='1252'> +6.1073046e+01 </wgt>
<wgt id='1253'> +6.1030873e+01 </wgt>
<wgt id='1254'> +6.1068018e+01 </wgt>
<wgt id='1255'> +6.1083630e+01 </wgt>
<wgt id='1256'> +6.1220350e+01 </wgt>
<wgt id='1257'> +6.1028229e+01 </wgt>
<wgt id='1258'> +6.1001707e+01 </wgt>
<wgt id='1259'> +6.0958555e+01 </wgt>
<wgt id='1260'> +6.0860231e+01 </wgt>
<wgt id='1261'> +6.1180583e+01 </wgt>
<wgt id='1262'> +6.0870061e+01 </wgt>
<wgt id='1263'> +6.0612172e+01 </wgt>
<wgt id='1264'> +6.1147682e+01 </wgt>
<wgt id='1265'> +6.0876631e+01 </wgt>
<wgt id='1266'> +6.1238862e+01 </wgt>
<wgt id='1267'> +6.1480963e+01 </wgt>
<wgt id='1268'> +6.1439525e+01 </wgt>
<wgt id='1269'> +6.0829030e+01 </wgt>
<wgt id='1270'> +6.0955297e+01 </wgt>
<wgt id='1271'> +6.0727636e+01 </wgt>
<wgt id='1272'> +6.0948984e+01 </wgt>
<wgt id='1273'> +6.1242353e+01 </wgt>
<wgt id='1274'> +6.1232434e+01 </wgt>
<wgt id='1275'> +6.0580371e+01 </wgt>
<wgt id='1276'> +6.1715945e+01 </wgt>
<wgt id='1277'> +6.1067716e+01 </wgt>
<wgt id='1278'> +6.0949206e+01 </wgt>
<wgt id='1279'> +6.1561638e+01 </wgt>
<wgt id='1280'> +6.1378798e+01 </wgt>
<wgt id='1281'> +6.0071168e+01 </wgt>
<wgt id='1282'> +6.0484307e+01 </wgt>
<wgt id='1283'> +6.1003382e+01 </wgt>
<wgt id='1284'> +6.0862266e+01 </wgt>
<wgt id='1285'> +6.1242988e+01 </wgt>
<wgt id='1286'> +6.1093979e+01 </wgt>
<wgt id='1287'> +6.1099255e+01 </wgt>
<wgt id='1288'> +6.1088177e+01 </wgt>
<wgt id='1289'> +6.1189105e+01 </wgt>
<wgt id='1290'> +6.1056581e+01 </wgt>
<wgt id='1291'> +6.1072924e+01 </wgt>
<wgt id='1292'> +6.1128418e+01 </wgt>
<wgt id='1293'> +6.0994255e+01 </wgt>
<wgt id='1294'> +6.0939287e+01 </wgt>
<wgt id='1295'> +6.0950960e+01 </wgt>
<wgt id='1296'> +6.1321204e+01 </wgt>
<wgt id='1297'> +6.0960338e+01 </wgt>
<wgt id='1298'> +6.1119749e+01 </wgt>
<wgt id='1299'> +6.1192843e+01 </wgt>
<wgt id='1300'> +6.0933988e+01 </wgt>
<wgt id='1301'> +6.1358714e+01 </wgt>
<wgt id='1302'> +6.1296952e+01 </wgt>
<wgt id='1303'> +6.1205448e+01 </wgt>
<wgt id='1304'> +6.0972662e+01 </wgt>
<wgt id='1305'> +6.0993504e+01 </wgt>
<wgt id='1306'> +6.1043930e+01 </wgt>
<wgt id='1307'> +6.0894169e+01 </wgt>
<wgt id='1308'> +6.1134265e+01 </wgt>
<wgt id='1309'> +6.1018604e+01 </wgt>
<wgt id='1310'> +6.1096214e+01 </wgt>
<wgt id='1311'> +6.1059381e+01 </wgt>
<wgt id='1312'> +6.1043719e+01 </wgt>
<wgt id='1313'> +6.0992619e+01 </wgt>
<wgt id='1314'> +6.1060863e+01 </wgt>
<wgt id='1315'> +6.1134193e+01 </wgt>
<wgt id='1316'> +6.1069696e+01 </wgt>
<wgt id='1317'> +6.1079848e+01 </wgt>
<wgt id='1318'> +6.1115044e+01 </wgt>
<wgt id='1319'> +6.1071819e+01 </wgt>
<wgt id='1320'> +6.1095830e+01 </wgt>
<wgt id='1321'> +6.1031391e+01 </wgt>
<wgt id='1322'> +6.1037931e+01 </wgt>
<wgt id='1323'> +6.0916045e+01 </wgt>
<wgt id='1324'> +6.1119435e+01 </wgt>
<wgt id='1325'> +6.1054474e+01 </wgt>
<wgt id='1326'> +6.1117149e+01 </wgt>
<wgt id='1327'> +6.1049132e+01 </wgt>
<wgt id='1328'> +6.1080541e+01 </wgt>
<wgt id='1329'> +6.1069059e+01 </wgt>
<wgt id='1330'> +6.1080458e+01 </wgt>
<wgt id='1331'> +6.1192181e+01 </wgt>
<wgt id='1332'> +6.1043476e+01 </wgt>
<wgt id='1333'> +6.1049704e+01 </wgt>
<wgt id='1334'> +6.1038581e+01 </wgt>
<wgt id='1335'> +6.1073002e+01 </wgt>
<wgt id='1336'> +6.1061661e+01 </wgt>
<wgt id='1337'> +6.1102023e+01 </wgt>
<wgt id='1338'> +6.1123415e+01 </wgt>
<wgt id='1339'> +6.1036896e+01 </wgt>
<wgt id='1340'> +6.1108229e+01 </wgt>
<wgt id='1341'> +6.1087659e+01 </wgt>
<wgt id='1342'> +6.1025986e+01 </wgt>
<wgt id='1343'> +6.1172647e+01 </wgt>
<wgt id='1344'> +6.1087644e+01 </wgt>
<wgt id='1345'> +6.1071142e+01 </wgt>
<wgt id='1346'> +6.1084379e+01 </wgt>
<wgt id='1347'> +6.1023699e+01 </wgt>
<wgt id='1348'> +6.1011379e+01 </wgt>
<wgt id='1349'> +6.1113689e+01 </wgt>
<wgt id='1350'> +6.1048267e+01 </wgt>
<wgt id='1351'> +6.1057267e+01 </wgt>
<wgt id='1352'> +6.1138203e+01 </wgt>
<wgt id='1353'> +5.9352916e+01 </wgt>
<wgt id='1354'> +6.3023933e+01 </wgt>
<wgt id='1355'> +5.2061203e+01 </wgt>
<wgt id='1356'> +5.3609548e+01 </wgt>
<wgt id='1357'> +5.5595540e+01 </wgt>
<wgt id='1358'> +5.7710493e+01 </wgt>
<wgt id='1359'> +6.0528176e+01 </wgt>
<wgt id='1360'> +6.2034218e+01 </wgt>
<wgt id='1361'> +6.5033822e+01 </wgt>
<wgt id='1362'> +6.6388682e+01 </wgt>
<wgt id='1363'> +6.0441415e+01 </wgt>
<wgt id='1364'> +6.0444105e+01 </wgt>
<wgt id='1365'> +6.0473514e+01 </wgt>
<wgt id='1366'> +6.0478601e+01 </wgt>
<wgt id='1367'> +6.0605894e+01 </wgt>
<wgt id='1368'> +6.0605509e+01 </wgt>
<wgt id='1369'> +6.0256758e+01 </wgt>
<wgt id='1370'> +6.0792843e+01 </wgt>
<wgt id='1371'> +6.0749562e+01 </wgt>
<wgt id='1372'> +6.0759594e+01 </wgt>
<wgt id='1373'> +6.0152455e+01 </wgt>
<wgt id='1374'> +6.0240532e+01 </wgt>
<wgt id='1375'> +6.0489438e+01 </wgt>
<wgt id='1376'> +6.0752424e+01 </wgt>
<wgt id='1377'> +6.0538837e+01 </wgt>
<wgt id='1378'> +6.0210520e+01 </wgt>
<wgt id='1379'> +6.1013846e+01 </wgt>
<wgt id='1380'> +6.0272553e+01 </wgt>
<wgt id='1381'> +6.0599022e+01 </wgt>
<wgt id='1382'> +6.0291571e+01 </wgt>
<wgt id='1383'> +6.0198954e+01 </wgt>
<wgt id='1384'> +6.0810799e+01 </wgt>
<wgt id='1385'> +6.0405679e+01 </wgt>
<wgt id='1386'> +6.0234872e+01 </wgt>
<wgt id='1387'> +6.0800049e+01 </wgt>
<wgt id='1388'> +6.0232950e+01 </wgt>
<wgt id='1389'> +6.0488431e+01 </wgt>
<wgt id='1390'> +6.0204172e+01 </wgt>
<wgt id='1391'> +6.0741954e+01 </wgt>
<wgt id='1392'> +6.0650252e+01 </wgt>
<wgt id='1393'> +5.9121368e+01 </wgt>
<wgt id='1394'> +6.0434896e+01 </wgt>
<wgt id='1395'> +6.0557624e+01 </wgt>
<wgt id='1396'> +6.0636023e+01 </wgt>
<wgt id='1397'> +6.0324218e+01 </wgt>
<wgt id='1398'> +6.0675792e+01 </wgt>
<wgt id='1399'> +6.0454372e+01 </wgt>
<wgt id='1400'> +6.0335973e+01 </wgt>
<wgt id='1401'> +6.0415306e+01 </wgt>
<wgt id='1402'> +6.0533640e+01 </wgt>
<wgt id='1403'> +6.0444755e+01 </wgt>
<wgt id='1404'> +6.0550397e+01 </wgt>
<wgt id='1405'> +6.0293284e+01 </wgt>
<wgt id='1406'> +6.0575273e+01 </wgt>
<wgt id='1407'> +6.0492896e+01 </wgt>
<wgt id='1408'> +6.0512212e+01 </wgt>
<wgt id='1409'> +6.0497597e+01 </wgt>
<wgt id='1410'> +6.0505447e+01 </wgt>
<wgt id='1411'> +6.0568599e+01 </wgt>
<wgt id='1412'> +6.0150557e+01 </wgt>
<wgt id='1413'> +6.0463560e+01 </wgt>
<wgt id='1414'> +6.0751323e+01 </wgt>
<wgt id='1415'> +6.0438468e+01 </wgt>
<wgt id='1416'> +6.0445334e+01 </wgt>
<wgt id='1417'> +6.0360896e+01 </wgt>
<wgt id='1418'> +6.0329502e+01 </wgt>
<wgt id='1419'> +6.0240021e+01 </wgt>
<wgt id='1420'> +6.0422011e+01 </wgt>
<wgt id='1421'> +6.0438795e+01 </wgt>
<wgt id='1422'> +6.0491584e+01 </wgt>
<wgt id='1423'> +6.0498777e+01 </wgt>
<wgt id='1424'> +6.0459444e+01 </wgt>
<wgt id='1425'> +6.0501979e+01 </wgt>
<wgt id='1426'> +6.0503089e+01 </wgt>
<wgt id='1427'> +6.0485973e+01 </wgt>
<wgt id='1428'> +6.0398943e+01 </wgt>
<wgt id='1429'> +6.0528220e+01 </wgt>
<wgt id='1430'> +6.0395582e+01 </wgt>
<wgt id='1431'> +6.0400375e+01 </wgt>
<wgt id='1432'> +6.0395892e+01 </wgt>
<wgt id='1433'> +6.0448213e+01 </wgt>
<wgt id='1434'> +6.0469367e+01 </wgt>
<wgt id='1435'> +6.0382900e+01 </wgt>
<wgt id='1436'> +6.0407031e+01 </wgt>
<wgt id='1437'> +6.0456049e+01 </wgt>
<wgt id='1438'> +6.0540582e+01 </wgt>
<wgt id='1439'> +6.0436369e+01 </wgt>
<wgt id='1440'> +6.0451859e+01 </wgt>
<wgt id='1441'> +6.0373175e+01 </wgt>
<wgt id='1442'> +6.0441347e+01 </wgt>
<wgt id='1443'> +6.0396296e+01 </wgt>
<wgt id='1444'> +6.0389837e+01 </wgt>
<wgt id='1445'> +6.0471547e+01 </wgt>
<wgt id='1446'> +6.0425251e+01 </wgt>
<wgt id='1447'> +6.0462919e+01 </wgt>
<wgt id='1448'> +6.0483181e+01 </wgt>
<wgt id='1449'> +6.0412833e+01 </wgt>
<wgt id='1450'> +6.0463072e+01 </wgt>
<wgt id='1451'> +6.0479362e+01 </wgt>
<wgt id='1452'> +6.0523684e+01 </wgt>
<wgt id='1453'> +6.0439825e+01 </wgt>
<wgt id='1454'> +6.0386902e+01 </wgt>
<wgt id='1455'> +6.0447596e+01 </wgt>
<wgt id='1456'> +6.0406160e+01 </wgt>
<wgt id='1457'> +6.0429773e+01 </wgt>
<wgt id='1458'> +6.0512674e+01 </wgt>
<wgt id='1459'> +6.0488308e+01 </wgt>
<wgt id='1460'> +6.0474068e+01 </wgt>
<wgt id='1461'> +6.0335751e+01 </wgt>
<wgt id='1462'> +6.0511619e+01 </wgt>
<wgt id='1463'> +6.0402424e+01 </wgt>
<wgt id='1464'> +5.8580109e+01 </wgt>
<wgt id='1465'> +6.2319210e+01 </wgt>
<wgt id='1466'> +5.7809726e+01 </wgt>
<wgt id='1467'> +5.6931774e+01 </wgt>
<wgt id='1468'> +5.7524056e+01 </wgt>
<wgt id='1469'> +5.7561440e+01 </wgt>
<wgt id='1470'> +5.8054281e+01 </wgt>
<wgt id='1471'> +5.8220112e+01 </wgt>
<wgt id='1472'> +5.7663429e+01 </wgt>
<wgt id='1473'> +5.8033685e+01 </wgt>
<wgt id='1474'> +5.8377016e+01 </wgt>
<wgt id='1475'> +5.9257566e+01 </wgt>
<wgt id='1476'> +5.6646191e+01 </wgt>
<wgt id='1477'> +5.8254030e+01 </wgt>
<wgt id='1478'> +5.6738492e+01 </wgt>
<wgt id='1479'> +5.7607057e+01 </wgt>
<wgt id='1480'> +5.7496244e+01 </wgt>
<wgt id='1481'> +5.8103000e+01 </wgt>
<wgt id='1482'> +5.6714404e+01 </wgt>
<wgt id='1483'> +5.8114647e+01 </wgt>
<wgt id='1484'> +5.7459151e+01 </wgt>
<wgt id='1485'> +5.7966004e+01 </wgt>
<wgt id='1486'> +5.7629847e+01 </wgt>
<wgt id='1487'> +5.8772306e+01 </wgt>
<wgt id='1488'> +5.7234347e+01 </wgt>
<wgt id='1489'> +5.8057972e+01 </wgt>
<wgt id='1490'> +5.7528995e+01 </wgt>
<wgt id='1491'> +5.8240249e+01 </wgt>
<wgt id='1492'> +5.7451427e+01 </wgt>
<wgt id='1493'> +5.7862974e+01 </wgt>
<wgt id='1494'> +5.7714934e+01 </wgt>
<wgt id='1495'> +5.8096157e+01 </wgt>
<wgt id='1496'> +5.7612806e+01 </wgt>
<wgt id='1497'> +5.7920646e+01 </wgt>
<wgt id='1498'> +5.7613503e+01 </wgt>
<wgt id='1499'> +5.9549680e+01 </wgt>
<wgt id='1500'> +5.6185251e+01 </wgt>
<wgt id='1501'> +5.8281411e+01 </wgt>
<wgt id='1502'> +5.7430154e+01 </wgt>
<wgt id='1503'> +5.9309855e+01 </wgt>
<wgt id='1504'> +5.6140974e+01 </wgt>
<wgt id='1505'> +5.8587194e+01 </wgt>
<wgt id='1506'> +5.6518536e+01 </wgt>
<wgt id='1507'> +5.8344966e+01 </wgt>
<wgt id='1508'> +5.7624249e+01 </wgt>
<wgt id='1509'> +5.8490911e+01 </wgt>
<wgt id='1510'> +5.6967047e+01 </wgt>
<wgt id='1511'> +5.7325315e+01 </wgt>
<wgt id='1512'> +5.8422065e+01 </wgt>
<wgt id='1513'> +5.9006737e+01 </wgt>
<wgt id='1514'> +5.7078056e+01 </wgt>
<wgt id='1515'> +5.7671287e+01 </wgt>
<wgt id='1516'> +5.8761680e+01 </wgt>
<wgt id='1517'> +5.6969832e+01 </wgt>
<wgt id='1518'> +5.9204177e+01 </wgt>
<wgt id='1519'> +6.0332141e+01 </wgt>
<wgt id='1520'> +6.0478755e+01 </wgt>
<wgt id='1521'> +5.7590438e+01 </wgt>
<wgt id='1522'> +5.8513366e+01 </wgt>
<wgt id='1523'> +5.5850283e+01 </wgt>
<wgt id='1524'> +5.9762513e+01 </wgt>
<wgt id='1525'> +5.7759049e+01 </wgt>
<wgt id='1526'> +5.8865419e+01 </wgt>
<wgt id='1527'> +5.6729134e+01 </wgt>
<wgt id='1528'> +5.7819057e+01 </wgt>
<wgt id='1529'> +5.7882798e+01 </wgt>
<wgt id='1530'> +5.8351439e+01 </wgt>
<wgt id='1531'> +5.7607416e+01 </wgt>
<wgt id='1532'> +5.8692773e+01 </wgt>
<wgt id='1533'> +5.7326876e+01 </wgt>
<wgt id='1534'> +5.7908827e+01 </wgt>
<wgt id='1535'> +5.7196323e+01 </wgt>
<wgt id='1536'> +5.6749229e+01 </wgt>
<wgt id='1537'> +5.8588716e+01 </wgt>
<wgt id='1538'> +5.6149575e+01 </wgt>
<wgt id='1539'> +5.8729502e+01 </wgt>
<wgt id='1540'> +5.8367721e+01 </wgt>
<wgt id='1541'> +5.6471696e+01 </wgt>
<wgt id='1542'> +5.9660729e+01 </wgt>
<wgt id='1543'> +5.5620498e+01 </wgt>
<wgt id='1544'> +5.8178237e+01 </wgt>
<wgt id='1545'> +5.7314783e+01 </wgt>
<wgt id='1546'> +5.7883015e+01 </wgt>
<wgt id='1547'> +5.7518224e+01 </wgt>
<wgt id='1548'> +5.8324083e+01 </wgt>
<wgt id='1549'> +5.7324574e+01 </wgt>
<wgt id='1550'> +5.7795602e+01 </wgt>
<wgt id='1551'> +5.7746990e+01 </wgt>
<wgt id='1552'> +5.6844807e+01 </wgt>
<wgt id='1553'> +5.9009777e+01 </wgt>
<wgt id='1554'> +5.8215368e+01 </wgt>
<wgt id='1555'> +5.7600683e+01 </wgt>
<wgt id='1556'> +5.7727671e+01 </wgt>
<wgt id='1557'> +5.7795380e+01 </wgt>
<wgt id='1558'> +5.7446687e+01 </wgt>
<wgt id='1559'> +5.8461964e+01 </wgt>
<wgt id='1560'> +5.8868268e+01 </wgt>
<wgt id='1561'> +5.6763161e+01 </wgt>
<wgt id='1562'> +5.7607041e+01 </wgt>
<wgt id='1563'> +5.7668089e+01 </wgt>
<wgt id='1564'> +5.6624100e+01 </wgt>
<wgt id='1565'> +5.8257441e+01 </wgt>
<wgt id='1566'> +5.7702886e+01 </wgt>
<wgt id='1567'> +5.8227594e+01 </wgt>
<wgt id='1568'> +5.7384390e+01 </wgt>
<wgt id='1569'> +5.7911042e+01 </wgt>
<wgt id='1570'> +5.7732181e+01 </wgt>
<wgt id='1571'> +5.7487028e+01 </wgt>
<wgt id='1572'> +5.7106444e+01 </wgt>
<wgt id='1573'> +5.8496311e+01 </wgt>
<wgt id='1574'> +5.7233839e+01 </wgt>
<wgt id='1575'> +5.8463809e+01 </wgt>
<wgt id='1576'> +5.7434236e+01 </wgt>
<wgt id='1577'> +5.6795557e+01 </wgt>
<wgt id='1578'> +5.7069537e+01 </wgt>
<wgt id='1579'> +5.7374278e+01 </wgt>
<wgt id='1580'> +5.7542004e+01 </wgt>
<wgt id='1581'> +5.8250636e+01 </wgt>
<wgt id='1582'> +5.5795558e+01 </wgt>
<wgt id='1583'> +5.9626963e+01 </wgt>
<wgt id='1584'> +5.1947155e+01 </wgt>
<wgt id='1585'> +5.5700016e+01 </wgt>
<wgt id='1586'> +5.5604121e+01 </wgt>
<wgt id='1587'> +5.5803468e+01 </wgt>
<wgt id='1588'> +5.5511487e+01 </wgt>
<wgt id='1589'> +5.5827424e+01 </wgt>
<wgt id='1590'> +5.5612865e+01 </wgt>
<wgt id='1591'> +5.5781976e+01 </wgt>
<wgt id='1592'> +5.5608615e+01 </wgt>
<wgt id='1593'> +5.5800833e+01 </wgt>
<wgt id='1594'> +5.5662961e+01 </wgt>
<wgt id='1595'> +5.5735865e+01 </wgt>
<wgt id='1596'> +5.5600075e+01 </wgt>
<wgt id='1597'> +5.5917339e+01 </wgt>
<wgt id='1598'> +5.5940531e+01 </wgt>
<wgt id='1599'> +5.5271042e+01 </wgt>
<wgt id='1600'> +5.5698259e+01 </wgt>
<wgt id='1601'> +5.5699932e+01 </wgt>
<wgt id='1602'> +5.5921901e+01 </wgt>
<wgt id='1603'> +5.5446553e+01 </wgt>
<wgt id='1604'> +5.5512973e+01 </wgt>
<wgt id='1605'> +5.5859041e+01 </wgt>
<wgt id='1606'> +5.6171541e+01 </wgt>
<wgt id='1607'> +5.5080475e+01 </wgt>
<wgt id='1608'> +5.6471110e+01 </wgt>
<wgt id='1609'> +5.5201596e+01 </wgt>
<wgt id='1610'> +5.5635575e+01 </wgt>
<wgt id='1611'> +5.5713278e+01 </wgt>
<wgt id='1612'> +5.5520543e+01 </wgt>
<wgt id='1613'> +5.5634433e+01 </wgt>
<wgt id='1614'> +5.5913785e+01 </wgt>
<wgt id='1615'> +5.5429969e+01 </wgt>
<wgt id='1616'> +5.6615600e+01 </wgt>
<wgt id='1617'> +5.4667664e+01 </wgt>
<wgt id='1618'> +5.5539365e+01 </wgt>
<wgt id='1619'> +5.5827449e+01 </wgt>
<wgt id='1620'> +5.5726149e+01 </wgt>
<wgt id='1621'> +5.5647586e+01 </wgt>
<wgt id='1622'> +5.5606866e+01 </wgt>
<wgt id='1623'> +5.5753502e+01 </wgt>
<wgt id='1624'> +5.5550747e+01 </wgt>
<wgt id='1625'> +5.5836980e+01 </wgt>
<wgt id='1626'> +5.4304414e+01 </wgt>
<wgt id='1627'> +5.7024585e+01 </wgt>
<wgt id='1628'> +5.6048912e+01 </wgt>
<wgt id='1629'> +5.5154926e+01 </wgt>
<wgt id='1630'> +5.5277758e+01 </wgt>
<wgt id='1631'> +5.6753145e+01 </wgt>
<wgt id='1632'> +5.5541025e+01 </wgt>
<wgt id='1633'> +5.5502204e+01 </wgt>
<wgt id='1634'> +5.5742961e+01 </wgt>
<wgt id='1635'> +5.5522833e+01 </wgt>
<wgt id='1636'> +5.8955505e+01 </wgt>
<wgt id='1637'> +5.8840727e+01 </wgt>
<wgt id='1638'> +5.9102624e+01 </wgt>
<wgt id='1639'> +5.8993430e+01 </wgt>
<wgt id='1640'> +5.8915652e+01 </wgt>
<wgt id='1641'> +5.8695161e+01 </wgt>
<wgt id='1642'> +5.9058868e+01 </wgt>
<wgt id='1643'> +5.8784302e+01 </wgt>
<wgt id='1644'> +5.9124895e+01 </wgt>
<wgt id='1645'> +5.8975334e+01 </wgt>
<wgt id='1646'> +5.8935967e+01 </wgt>
<wgt id='1647'> +5.9189053e+01 </wgt>
<wgt id='1648'> +5.8854273e+01 </wgt>
<wgt id='1649'> +5.9089680e+01 </wgt>
<wgt id='1650'> +5.8791425e+01 </wgt>
<wgt id='1651'> +5.9188516e+01 </wgt>
<wgt id='1652'> +5.8702146e+01 </wgt>
<wgt id='1653'> +5.9247252e+01 </wgt>
<wgt id='1654'> +5.8789167e+01 </wgt>
<wgt id='1655'> +5.8975268e+01 </wgt>
<wgt id='1656'> +5.8927024e+01 </wgt>
<wgt id='1657'> +5.8411783e+01 </wgt>
<wgt id='1658'> +5.9326717e+01 </wgt>
<wgt id='1659'> +5.8351678e+01 </wgt>
<wgt id='1660'> +5.9525361e+01 </wgt>
<wgt id='1661'> +5.8705073e+01 </wgt>
<wgt id='1662'> +5.9584146e+01 </wgt>
<wgt id='1663'> +5.8833355e+01 </wgt>
<wgt id='1664'> +5.8820705e+01 </wgt>
<wgt id='1665'> +5.8649951e+01 </wgt>
<wgt id='1666'> +5.9765983e+01 </wgt>
<wgt id='1667'> +5.9378937e+01 </wgt>
<wgt id='1668'> +5.8046967e+01 </wgt>
<wgt id='1669'> +5.8826250e+01 </wgt>
<wgt id='1670'> +5.9141775e+01 </wgt>
<wgt id='1671'> +5.9025486e+01 </wgt>
<wgt id='1672'> +5.8876642e+01 </wgt>
<wgt id='1673'> +5.8893166e+01 </wgt>
<wgt id='1674'> +5.8613833e+01 </wgt>
<wgt id='1675'> +5.8806844e+01 </wgt>
<wgt id='1676'> +5.9029626e+01 </wgt>
<wgt id='1677'> +5.9961135e+01 </wgt>
<wgt id='1678'> +5.6989430e+01 </wgt>
<wgt id='1679'> +5.8972693e+01 </wgt>
<wgt id='1680'> +5.8594121e+01 </wgt>
<wgt id='1681'> +5.8376522e+01 </wgt>
<wgt id='1682'> +5.9306748e+01 </wgt>
<wgt id='1683'> +5.9699393e+01 </wgt>
<wgt id='1684'> +5.8615565e+01 </wgt>
<wgt id='1685'> +5.8953790e+01 </wgt>
<wgt id='1686'> +5.8782771e+01 </wgt>
<wgt id='1687'> +6.4838994e+01 </wgt>
<wgt id='1688'> +5.6354613e+01 </wgt>
<wgt id='1689'> +5.6343912e+01 </wgt>
<wgt id='1690'> +5.6366160e+01 </wgt>
<wgt id='1691'> +5.6280639e+01 </wgt>
<wgt id='1692'> +5.6356759e+01 </wgt>
<wgt id='1693'> +5.6474353e+01 </wgt>
<wgt id='1694'> +5.6079458e+01 </wgt>
<wgt id='1695'> +5.6493654e+01 </wgt>
<wgt id='1696'> +5.6400598e+01 </wgt>
<wgt id='1697'> +5.5951208e+01 </wgt>
<wgt id='1698'> +5.6428782e+01 </wgt>
<wgt id='1699'> +5.6462734e+01 </wgt>
<wgt id='1700'> +5.6516048e+01 </wgt>
<wgt id='1701'> +5.6356991e+01 </wgt>
<wgt id='1702'> +5.6364790e+01 </wgt>
<wgt id='1703'> +5.6283093e+01 </wgt>
<wgt id='1704'> +5.6121145e+01 </wgt>
<wgt id='1705'> +5.6235242e+01 </wgt>
<wgt id='1706'> +5.6327273e+01 </wgt>
<wgt id='1707'> +5.6539964e+01 </wgt>
<wgt id='1708'> +5.6280167e+01 </wgt>
<wgt id='1709'> +5.6105487e+01 </wgt>
<wgt id='1710'> +5.6344178e+01 </wgt>
<wgt id='1711'> +5.6728859e+01 </wgt>
<wgt id='1712'> +5.6590357e+01 </wgt>
<wgt id='1713'> +5.6316169e+01 </wgt>
<wgt id='1714'> +5.6580616e+01 </wgt>
<wgt id='1715'> +5.6839002e+01 </wgt>
<wgt id='1716'> +5.5953344e+01 </wgt>
<wgt id='1717'> +5.5830732e+01 </wgt>
<wgt id='1718'> +5.7108126e+01 </wgt>
<wgt id='1719'> +5.6918343e+01 </wgt>
<wgt id='1720'> +5.6763279e+01 </wgt>
<wgt id='1721'> +5.7409478e+01 </wgt>
<wgt id='1722'> +5.6970973e+01 </wgt>
<wgt id='1723'> +5.7297962e+01 </wgt>
<wgt id='1724'> +5.6627644e+01 </wgt>
<wgt id='1725'> +5.7237211e+01 </wgt>
<wgt id='1726'> +5.7140182e+01 </wgt>
<wgt id='1727'> +5.7312894e+01 </wgt>
<wgt id='1728'> +5.7253546e+01 </wgt>
<wgt id='1729'> +5.6379758e+01 </wgt>
<wgt id='1730'> +5.6856204e+01 </wgt>
<wgt id='1731'> +5.6978900e+01 </wgt>
<wgt id='1732'> +5.6749170e+01 </wgt>
<wgt id='1733'> +5.6958948e+01 </wgt>
<wgt id='1734'> +5.6488537e+01 </wgt>
<wgt id='1735'> +5.7116479e+01 </wgt>
<wgt id='1736'> +5.8183150e+01 </wgt>
<wgt id='1737'> +5.6756734e+01 </wgt>
<wgt id='1738'> +5.7277285e+01 </wgt>
<wgt id='1739'> +5.7665783e+01 </wgt>
<wgt id='1740'> +5.7217840e+01 </wgt>
<wgt id='1741'> +5.7791038e+01 </wgt>
<wgt id='1742'> +5.6823119e+01 </wgt>
<wgt id='1743'> +5.7595585e+01 </wgt>
<wgt id='1744'> +5.7205944e+01 </wgt>
<wgt id='1745'> +5.7082012e+01 </wgt>
<wgt id='1746'> +5.7011036e+01 </wgt>
<wgt id='1747'> +5.7073807e+01 </wgt>
<wgt id='1748'> +5.7053017e+01 </wgt>
<wgt id='1749'> +5.6908815e+01 </wgt>
<wgt id='1750'> +5.7625058e+01 </wgt>
<wgt id='1751'> +5.7258151e+01 </wgt>
<wgt id='1752'> +5.6992453e+01 </wgt>
<wgt id='1753'> +5.7375298e+01 </wgt>
<wgt id='1754'> +5.6977489e+01 </wgt>
<wgt id='1755'> +5.7286851e+01 </wgt>
<wgt id='1756'> +5.6769496e+01 </wgt>
<wgt id='1757'> +5.6954443e+01 </wgt>
<wgt id='1758'> +5.7028401e+01 </wgt>
<wgt id='1759'> +5.7155971e+01 </wgt>
<wgt id='1760'> +5.7037495e+01 </wgt>
<wgt id='1761'> +5.7034779e+01 </wgt>
<wgt id='1762'> +5.7041200e+01 </wgt>
<wgt id='1763'> +5.7077748e+01 </wgt>
<wgt id='1764'> +5.7221935e+01 </wgt>
<wgt id='1765'> +5.7144935e+01 </wgt>
<wgt id='1766'> +5.7045374e+01 </wgt>
<wgt id='1767'> +5.7057538e+01 </wgt>
<wgt id='1768'> +5.7027126e+01 </wgt>
<wgt id='1769'> +5.6891214e+01 </wgt>
<wgt id='1770'> +5.7063204e+01 </wgt>
<wgt id='1771'> +5.7223857e+01 </wgt>
<wgt id='1772'> +5.7068164e+01 </wgt>
<wgt id='1773'> +5.7154150e+01 </wgt>
<wgt id='1774'> +5.7100575e+01 </wgt>
<wgt id='1775'> +5.7108356e+01 </wgt>
<wgt id='1776'> +5.7258349e+01 </wgt>
<wgt id='1777'> +5.7269722e+01 </wgt>
<wgt id='1778'> +5.7009707e+01 </wgt>
<wgt id='1779'> +5.7167999e+01 </wgt>
<wgt id='1780'> +5.6991849e+01 </wgt>
<wgt id='1781'> +5.7209312e+01 </wgt>
<wgt id='1782'> +5.7103762e+01 </wgt>
<wgt id='1783'> +5.7175960e+01 </wgt>
<wgt id='1784'> +5.7199947e+01 </wgt>
<wgt id='1785'> +5.7108569e+01 </wgt>
<wgt id='1786'> +5.7184429e+01 </wgt>
<wgt id='1787'> +5.7088867e+01 </wgt>
<wgt id='1788'> +5.7077280e+01 </wgt>
<wgt id='1789'> +5.7090421e+01 </wgt>
<wgt id='1790'> +5.7128393e+01 </wgt>
<wgt id='1791'> +5.7104202e+01 </wgt>
<wgt id='1792'> +5.7049410e+01 </wgt>
<wgt id='1793'> +5.7101004e+01 </wgt>
<wgt id='1794'> +5.7119143e+01 </wgt>
<wgt id='1795'> +5.7086449e+01 </wgt>
<wgt id='1796'> +5.7069810e+01 </wgt>
<wgt id='1797'> +5.7116474e+01 </wgt>
<wgt id='1798'> +5.7113287e+01 </wgt>
<wgt id='1799'> +5.7147630e+01 </wgt>
<wgt id='1800'> +5.7084509e+01 </wgt>
<wgt id='1801'> +5.7102741e+01 </wgt>
<wgt id='1802'> +5.7104082e+01 </wgt>
<wgt id='1803'> +5.7098740e+01 </wgt>
<wgt id='1804'> +5.7151959e+01 </wgt>
<wgt id='1805'> +5.7108427e+01 </wgt>
<wgt id='1806'> +5.7093311e+01 </wgt>
<wgt id='1807'> +5.7106005e+01 </wgt>
<wgt id='1808'> +5.7127876e+01 </wgt>
<wgt id='1809'> +5.7075317e+01 </wgt>
<wgt id='1810'> +5.7107297e+01 </wgt>
<wgt id='1811'> +5.7097748e+01 </wgt>
<wgt id='1812'> +5.7100172e+01 </wgt>
<wgt id='1813'> +5.7101582e+01 </wgt>
<wgt id='1814'> +5.7093911e+01 </wgt>
<wgt id='1815'> +5.7122295e+01 </wgt>
<wgt id='1816'> +5.7108529e+01 </wgt>
<wgt id='1817'> +5.7094996e+01 </wgt>
<wgt id='1818'> +5.7109998e+01 </wgt>
<wgt id='1819'> +5.5642488e+01 </wgt>
<wgt id='1820'> +5.8449211e+01 </wgt>
<wgt id='1821'> +5.8774290e+01 </wgt>
<wgt id='1822'> +5.8711220e+01 </wgt>
<wgt id='1823'> +5.8801088e+01 </wgt>
<wgt id='1824'> +5.8558939e+01 </wgt>
<wgt id='1825'> +5.8897695e+01 </wgt>
<wgt id='1826'> +5.9076532e+01 </wgt>
<wgt id='1827'> +5.8918601e+01 </wgt>
<wgt id='1828'> +5.8999211e+01 </wgt>
<wgt id='1829'> +5.8710184e+01 </wgt>
<wgt id='1830'> +5.8630347e+01 </wgt>
<wgt id='1831'> +5.8483643e+01 </wgt>
<wgt id='1832'> +5.9519408e+01 </wgt>
<wgt id='1833'> +5.8996032e+01 </wgt>
<wgt id='1834'> +5.8752225e+01 </wgt>
<wgt id='1835'> +5.8658101e+01 </wgt>
<wgt id='1836'> +5.9756188e+01 </wgt>
<wgt id='1837'> +5.8669189e+01 </wgt>
<wgt id='1838'> +5.8726281e+01 </wgt>
<wgt id='1839'> +5.9018782e+01 </wgt>
<wgt id='1840'> +5.8174528e+01 </wgt>
<wgt id='1841'> +5.8709933e+01 </wgt>
<wgt id='1842'> +5.9021607e+01 </wgt>
<wgt id='1843'> +5.7774170e+01 </wgt>
<wgt id='1844'> +5.9117451e+01 </wgt>
<wgt id='1845'> +5.8883573e+01 </wgt>
<wgt id='1846'> +5.8522423e+01 </wgt>
<wgt id='1847'> +5.8505771e+01 </wgt>
<wgt id='1848'> +5.8939813e+01 </wgt>
<wgt id='1849'> +5.8791844e+01 </wgt>
<wgt id='1850'> +5.8294427e+01 </wgt>
<wgt id='1851'> +5.8506538e+01 </wgt>
<wgt id='1852'> +5.8760460e+01 </wgt>
<wgt id='1853'> +5.8807175e+01 </wgt>
<wgt id='1854'> +5.8686942e+01 </wgt>
<wgt id='1855'> +5.8559875e+01 </wgt>
<wgt id='1856'> +5.8965753e+01 </wgt>
<wgt id='1857'> +5.8792394e+01 </wgt>
<wgt id='1858'> +5.9198486e+01 </wgt>
<wgt id='1859'> +5.9187777e+01 </wgt>
<wgt id='1860'> +5.8609165e+01 </wgt>
<wgt id='1861'> +5.8808100e+01 </wgt>
<wgt id='1862'> +5.8583158e+01 </wgt>
<wgt id='1863'> +5.8757712e+01 </wgt>
<wgt id='1864'> +5.8729919e+01 </wgt>
<wgt id='1865'> +5.8625350e+01 </wgt>
<wgt id='1866'> +5.8719339e+01 </wgt>
<wgt id='1867'> +5.8516941e+01 </wgt>
<wgt id='1868'> +5.8848601e+01 </wgt>
<wgt id='1869'> +5.8723010e+01 </wgt>
<wgt id='1870'> +5.8660293e+01 </wgt>
<wgt id='1871'> +5.8751811e+01 </wgt>
<wgt id='1872'> +5.8807297e+01 </wgt>
<wgt id='1873'> +5.8682189e+01 </wgt>
<wgt id='1874'> +5.8770630e+01 </wgt>
<wgt id='1875'> +5.8836143e+01 </wgt>
<wgt id='1876'> +5.8652960e+01 </wgt>
<wgt id='1877'> +5.8808560e+01 </wgt>
<wgt id='1878'> +5.8920830e+01 </wgt>
<wgt id='1879'> +5.8762353e+01 </wgt>
<wgt id='1880'> +5.8673815e+01 </wgt>
<wgt id='1881'> +5.8649174e+01 </wgt>
<wgt id='1882'> +5.8901253e+01 </wgt>
<wgt id='1883'> +5.8658337e+01 </wgt>
<wgt id='1884'> +5.8840422e+01 </wgt>
<wgt id='1885'> +5.8780407e+01 </wgt>
<wgt id='1886'> +5.8732217e+01 </wgt>
<wgt id='1887'> +5.8708126e+01 </wgt>
<wgt id='1888'> +5.8696959e+01 </wgt>
<wgt id='1889'> +5.8740324e+01 </wgt>
<wgt id='1890'> +5.8729669e+01 </wgt>
<wgt id='1891'> +5.8736670e+01 </wgt>
<wgt id='1892'> +5.8855205e+01 </wgt>
<wgt id='1893'> +5.8777267e+01 </wgt>
<wgt id='1894'> +5.8769992e+01 </wgt>
<wgt id='1895'> +5.8751891e+01 </wgt>
<wgt id='1896'> +5.8826283e+01 </wgt>
<wgt id='1897'> +5.8796108e+01 </wgt>
<wgt id='1898'> +5.8788839e+01 </wgt>
<wgt id='1899'> +5.8734430e+01 </wgt>
<wgt id='1900'> +5.8769794e+01 </wgt>
<wgt id='1901'> +5.8851372e+01 </wgt>
<wgt id='1902'> +5.8767011e+01 </wgt>
<wgt id='1903'> +5.8773318e+01 </wgt>
<wgt id='1904'> +5.8731337e+01 </wgt>
<wgt id='1905'> +5.8755233e+01 </wgt>
<wgt id='1906'> +5.8780937e+01 </wgt>
<wgt id='1907'> +5.8774700e+01 </wgt>
<wgt id='1908'> +5.8734226e+01 </wgt>
<wgt id='1909'> +5.8764803e+01 </wgt>
<wgt id='1910'> +5.8752838e+01 </wgt>
<wgt id='1911'> +5.8755833e+01 </wgt>
<wgt id='1912'> +5.8781420e+01 </wgt>
<wgt id='1913'> +5.8780848e+01 </wgt>
<wgt id='1914'> +5.8748042e+01 </wgt>
<wgt id='1915'> +5.8752913e+01 </wgt>
<wgt id='1916'> +5.8771104e+01 </wgt>
<wgt id='1917'> +5.8751219e+01 </wgt>
<wgt id='1918'> +5.8780199e+01 </wgt>
<wgt id='1919'> +5.8779325e+01 </wgt>
<wgt id='1920'> +5.8744499e+01 </wgt>
<wgt id='1921'> +5.8780893e+01 </wgt>
<wgt id='1922'> +5.7190672e+01 </wgt>
<wgt id='1923'> +6.0171059e+01 </wgt>
<wgt id='1924'> +5.7108781e+01 </wgt>
<wgt id='1925'> +5.6871711e+01 </wgt>
<wgt id='1926'> +5.5876399e+01 </wgt>
<wgt id='1927'> +5.7077571e+01 </wgt>
<wgt id='1928'> +5.7220080e+01 </wgt>
<wgt id='1929'> +5.7083158e+01 </wgt>
<wgt id='1930'> +5.8012333e+01 </wgt>
<wgt id='1931'> +5.7098810e+01 </wgt>
<wgt id='1932'> +5.7254879e+01 </wgt>
<wgt id='1933'> +5.7348291e+01 </wgt>
<wgt id='1934'> +5.7172643e+01 </wgt>
<wgt id='1935'> +5.6868083e+01 </wgt>
<wgt id='1936'> +5.7384943e+01 </wgt>
<wgt id='1937'> +5.7103591e+01 </wgt>
<wgt id='1938'> +5.6145912e+01 </wgt>
<wgt id='1939'> +5.7270389e+01 </wgt>
<wgt id='1940'> +5.7278460e+01 </wgt>
<wgt id='1941'> +5.6776918e+01 </wgt>
<wgt id='1942'> +5.7081688e+01 </wgt>
<wgt id='1943'> +5.7350600e+01 </wgt>
<wgt id='1944'> +5.7704045e+01 </wgt>
<wgt id='1945'> +5.7049455e+01 </wgt>
<wgt id='1946'> +5.6968403e+01 </wgt>
<wgt id='1947'> +5.7124731e+01 </wgt>
<wgt id='1948'> +5.6837137e+01 </wgt>
<wgt id='1949'> +5.7143436e+01 </wgt>
<wgt id='1950'> +5.6329351e+01 </wgt>
<wgt id='1951'> +5.7181901e+01 </wgt>
<wgt id='1952'> +5.7149770e+01 </wgt>
<wgt id='1953'> +5.7053313e+01 </wgt>
<wgt id='1954'> +5.7140285e+01 </wgt>
<wgt id='1955'> +5.5642488e+01 </wgt>
<wgt id='1956'> +5.8449211e+01 </wgt>
<wgt id='1957'> +5.8772071e+01 </wgt>
<wgt id='1958'> +5.8904079e+01 </wgt>
<wgt id='1959'> +6.0122834e+01 </wgt>
<wgt id='1960'> +5.8648679e+01 </wgt>
<wgt id='1961'> +5.8716947e+01 </wgt>
<wgt id='1962'> +5.8279130e+01 </wgt>
<wgt id='1963'> +5.8750823e+01 </wgt>
<wgt id='1964'> +5.8710596e+01 </wgt>
<wgt id='1965'> +5.8737285e+01 </wgt>
<wgt id='1966'> +5.8206159e+01 </wgt>
<wgt id='1967'> +5.8749556e+01 </wgt>
<wgt id='1968'> +5.9676220e+01 </wgt>
<wgt id='1969'> +5.8864762e+01 </wgt>
<wgt id='1970'> +5.8833729e+01 </wgt>
<wgt id='1971'> +5.8738882e+01 </wgt>
<wgt id='1972'> +5.8560519e+01 </wgt>
<wgt id='1973'> +5.8618801e+01 </wgt>
<wgt id='1974'> +5.8502225e+01 </wgt>
<wgt id='1975'> +5.8744167e+01 </wgt>
<wgt id='1976'> +5.8936900e+01 </wgt>
<wgt id='1977'> +5.8773298e+01 </wgt>
<wgt id='1978'> +5.7789378e+01 </wgt>
<wgt id='1979'> +5.8930882e+01 </wgt>
<wgt id='1980'> +5.8773613e+01 </wgt>
<wgt id='1981'> +5.8881933e+01 </wgt>
<wgt id='1982'> +5.8820835e+01 </wgt>
<wgt id='1983'> +5.8776340e+01 </wgt>
<wgt id='1984'> +5.8845609e+01 </wgt>
<wgt id='1985'> +5.8833437e+01 </wgt>
<wgt id='1986'> +5.8794829e+01 </wgt>
<wgt id='1987'> +5.8919252e+01 </wgt>
<wgt id='1988'> +5.7190672e+01 </wgt>
<wgt id='1989'> +6.0171059e+01 </wgt>
<wgt id='1990'> +5.7008230e+01 </wgt>
<wgt id='1991'> +5.7095279e+01 </wgt>
<wgt id='1992'> +5.6921628e+01 </wgt>
<wgt id='1993'> +5.6935957e+01 </wgt>
<wgt id='1994'> +5.7080409e+01 </wgt>
<wgt id='1995'> +5.7065900e+01 </wgt>
<wgt id='1996'> +5.6950545e+01 </wgt>
<wgt id='1997'> +5.6840562e+01 </wgt>
<wgt id='1998'> +5.7171236e+01 </wgt>
<wgt id='1999'> +5.6380817e+01 </wgt>
<wgt id='2000'> +5.7611089e+01 </wgt>
<wgt id='2001'> +5.7454079e+01 </wgt>
<wgt id='2002'> +5.6563023e+01 </wgt>
<wgt id='2003'> +5.7090677e+01 </wgt>
<wgt id='2004'> +5.6924924e+01 </wgt>
<wgt id='2005'> +5.7239922e+01 </wgt>
<wgt id='2006'> +5.6735420e+01 </wgt>
<wgt id='2007'> +5.7058932e+01 </wgt>
<wgt id='2008'> +5.6935405e+01 </wgt>
<wgt id='2009'> +5.5798991e+01 </wgt>
<wgt id='2010'> +5.8169231e+01 </wgt>
<wgt id='2011'> +5.5762992e+01 </wgt>
<wgt id='2012'> +5.8216037e+01 </wgt>
<wgt id='2013'> +5.6028476e+01 </wgt>
<wgt id='2014'> +5.7901933e+01 </wgt>
<wgt id='2015'> +5.7898141e+01 </wgt>
<wgt id='2016'> +5.6142277e+01 </wgt>
<wgt id='2017'> +5.6914762e+01 </wgt>
<wgt id='2018'> +5.7128239e+01 </wgt>
<wgt id='2019'> +5.7008230e+01 </wgt>
<wgt id='2020'> +5.9340221e+01 </wgt>
<wgt id='2021'> +5.4591888e+01 </wgt>
<wgt id='2022'> +6.3968518e+01 </wgt>
<wgt id='2023'> +6.1795006e+01 </wgt>
<wgt id='2024'> +5.7694779e+01 </wgt>
<wgt id='2025'> +5.6873384e+01 </wgt>
<wgt id='2026'> +5.7002810e+01 </wgt>
<wgt id='2027'> +5.7013579e+01 </wgt>
<wgt id='2028'> +5.6736634e+01 </wgt>
<wgt id='2029'> +5.7261800e+01 </wgt>
<wgt id='2030'> +5.6619123e+01 </wgt>
<wgt id='2031'> +5.7542515e+01 </wgt>
<wgt id='2032'> +5.8215227e+01 </wgt>
<wgt id='2033'> +6.2215281e+01 </wgt>
<wgt id='2034'> +6.2281081e+01 </wgt>
<wgt id='2035'> +6.2107362e+01 </wgt>
<wgt id='2036'> +6.2102393e+01 </wgt>
<wgt id='2037'> +6.2285823e+01 </wgt>
<wgt id='2038'> +6.2214304e+01 </wgt>
<wgt id='2039'> +6.2173761e+01 </wgt>
<wgt id='2040'> +6.1987140e+01 </wgt>
<wgt id='2041'> +6.2394146e+01 </wgt>
<wgt id='2042'> +6.2190535e+01 </wgt>
<wgt id='2043'> +6.2195024e+01 </wgt>
<wgt id='2044'> +6.1457504e+01 </wgt>
<wgt id='2045'> +6.2906670e+01 </wgt>
<wgt id='2046'> +6.2309923e+01 </wgt>
<wgt id='2047'> +6.2075697e+01 </wgt>
<wgt id='2048'> +6.2110429e+01 </wgt>
<wgt id='2049'> +6.2251954e+01 </wgt>
<wgt id='2050'> +6.1916391e+01 </wgt>
<wgt id='2051'> +6.2459274e+01 </wgt>
<wgt id='2052'> +6.0826381e+01 </wgt>
<wgt id='2053'> +6.3513801e+01 </wgt>
<wgt id='2054'> +6.2428225e+01 </wgt>
<wgt id='2055'> +6.1922577e+01 </wgt>
<wgt id='2056'> +6.3092931e+01 </wgt>
<wgt id='2057'> +6.1350240e+01 </wgt>
<wgt id='2058'> +6.2401863e+01 </wgt>
<wgt id='2059'> +6.2139008e+01 </wgt>
<wgt id='2060'> +6.2049013e+01 </wgt>
<wgt id='2061'> +6.2448345e+01 </wgt>
<wgt id='2062'> +6.2191213e+01 </wgt>
<wgt id='2063'> +6.4518392e+01 </wgt>
<wgt id='2064'> +5.9117296e+01 </wgt>
<wgt id='2065'> +6.7959589e+01 </wgt>
<wgt id='2066'> +6.4743437e+01 </wgt>
<wgt id='2067'> +6.5361463e+01 </wgt>
<wgt id='2068'> +6.0014150e+01 </wgt>
<wgt id='2069'> +6.2151730e+01 </wgt>
<wgt id='2070'> +6.2215208e+01 </wgt>
<wgt id='2071'> +6.0496109e+01 </wgt>
<wgt id='2072'> +6.4637211e+01 </wgt>
<wgt id='2073'> +6.0406781e+01 </wgt>
<wgt id='2074'> +6.2837909e+01 </wgt>
<wgt id='2075'> +5.9472771e+01 </wgt>
<wgt id='2076'> +5.7262595e+01 </wgt>
<wgt id='2077'> +5.7241845e+01 </wgt>
<wgt id='2078'> +5.7220954e+01 </wgt>
<wgt id='2079'> +5.7200226e+01 </wgt>
<wgt id='2080'> +5.7179337e+01 </wgt>
<wgt id='2081'> +5.7158603e+01 </wgt>
<wgt id='2082'> +5.7137787e+01 </wgt>
<wgt id='2083'> +5.7116877e+01 </wgt>
<wgt id='2084'> +5.7096174e+01 </wgt>
<wgt id='2085'> +5.7075289e+01 </wgt>
<wgt id='2086'> +5.7054653e+01 </wgt>
<wgt id='2087'> +5.7033791e+01 </wgt>
<wgt id='2088'> +5.7013053e+01 </wgt>
<wgt id='2089'> +5.6992221e+01 </wgt>
<wgt id='2090'> +5.6971366e+01 </wgt>
<wgt id='2091'> +5.6950679e+01 </wgt>
<wgt id='2092'> +5.6929859e+01 </wgt>
<wgt id='2093'> +5.6909180e+01 </wgt>
<wgt id='2094'> +5.6888343e+01 </wgt>
<wgt id='2095'> +5.6867739e+01 </wgt>
<wgt id='2096'> +5.6846859e+01 </wgt>
<wgt id='2097'> +5.6826196e+01 </wgt>
<wgt id='2098'> +5.6805382e+01 </wgt>
<wgt id='2099'> +5.6784610e+01 </wgt>
<wgt id='2100'> +5.6763883e+01 </wgt>
<wgt id='2101'> +5.6743051e+01 </wgt>
<wgt id='2102'> +5.6722479e+01 </wgt>
<wgt id='2103'> +5.6701651e+01 </wgt>
<wgt id='2104'> +5.6680990e+01 </wgt>
<wgt id='2105'> +5.6660245e+01 </wgt>
<wgt id='2106'> +5.6639460e+01 </wgt>
<wgt id='2107'> +5.8547577e+01 </wgt>
<wgt id='2108'> +5.8473196e+01 </wgt>
<wgt id='2109'> +5.8570213e+01 </wgt>
<wgt id='2110'> +5.8334917e+01 </wgt>
<wgt id='2111'> +5.8668224e+01 </wgt>
<wgt id='2112'> +5.8848201e+01 </wgt>
<wgt id='2113'> +5.8700773e+01 </wgt>
<wgt id='2114'> +5.8780434e+01 </wgt>
<wgt id='2115'> +5.8484379e+01 </wgt>
<wgt id='2116'> +5.8405153e+01 </wgt>
<wgt id='2117'> +5.8255889e+01 </wgt>
<wgt id='2118'> +5.9301412e+01 </wgt>
<wgt id='2119'> +5.8774094e+01 </wgt>
<wgt id='2120'> +5.8531585e+01 </wgt>
<wgt id='2121'> +5.8430177e+01 </wgt>
<wgt id='2122'> +5.9509685e+01 </wgt>
<wgt id='2123'> +5.8454145e+01 </wgt>
<wgt id='2124'> +5.8494874e+01 </wgt>
<wgt id='2125'> +5.8788936e+01 </wgt>
<wgt id='2126'> +5.7955974e+01 </wgt>
<wgt id='2127'> +5.8492336e+01 </wgt>
<wgt id='2128'> +5.8789262e+01 </wgt>
<wgt id='2129'> +5.7548332e+01 </wgt>
<wgt id='2130'> +5.8893967e+01 </wgt>
<wgt id='2131'> +5.8652017e+01 </wgt>
<wgt id='2132'> +5.8288091e+01 </wgt>
<wgt id='2133'> +5.8271452e+01 </wgt>
<wgt id='2134'> +5.8721931e+01 </wgt>
<wgt id='2135'> +5.8568851e+01 </wgt>
<wgt id='2136'> +5.8064685e+01 </wgt>
<wgt id='2137'> +5.8276631e+01 </wgt>
<wgt id='2138'> +5.8543724e+01 </wgt>
<wgt id='2139'> +5.8576278e+01 </wgt>
<wgt id='2140'> +5.8457347e+01 </wgt>
<wgt id='2141'> +5.8332463e+01 </wgt>
<wgt id='2142'> +5.8736163e+01 </wgt>
<wgt id='2143'> +5.8566535e+01 </wgt>
<wgt id='2144'> +5.8970791e+01 </wgt>
<wgt id='2145'> +5.8957701e+01 </wgt>
<wgt id='2146'> +5.8379212e+01 </wgt>
<wgt id='2147'> +5.8581644e+01 </wgt>
<wgt id='2148'> +5.8355022e+01 </wgt>
<wgt id='2149'> +5.8530150e+01 </wgt>
<wgt id='2150'> +5.8508277e+01 </wgt>
<wgt id='2151'> +5.8398384e+01 </wgt>
<wgt id='2152'> +5.8491040e+01 </wgt>
<wgt id='2153'> +5.8293305e+01 </wgt>
<wgt id='2154'> +5.8620504e+01 </wgt>
<wgt id='2155'> +5.8498247e+01 </wgt>
<wgt id='2156'> +5.8432526e+01 </wgt>
<wgt id='2157'> +5.8525690e+01 </wgt>
<wgt id='2158'> +5.8579949e+01 </wgt>
<wgt id='2159'> +5.8455083e+01 </wgt>
<wgt id='2160'> +5.8544039e+01 </wgt>
<wgt id='2161'> +5.8610682e+01 </wgt>
<wgt id='2162'> +5.8428150e+01 </wgt>
<wgt id='2163'> +5.8578354e+01 </wgt>
<wgt id='2164'> +5.8693006e+01 </wgt>
<wgt id='2165'> +5.8538893e+01 </wgt>
<wgt id='2166'> +5.8449894e+01 </wgt>
<wgt id='2167'> +5.8424107e+01 </wgt>
<wgt id='2168'> +5.8674614e+01 </wgt>
<wgt id='2169'> +5.8432270e+01 </wgt>
<wgt id='2170'> +5.8611944e+01 </wgt>
<wgt id='2171'> +5.8554826e+01 </wgt>
<wgt id='2172'> +5.8505522e+01 </wgt>
<wgt id='2173'> +5.8480974e+01 </wgt>
<wgt id='2174'> +5.8469194e+01 </wgt>
<wgt id='2175'> +5.8513459e+01 </wgt>
<wgt id='2176'> +5.8501160e+01 </wgt>
<wgt id='2177'> +5.8509070e+01 </wgt>
<wgt id='2178'> +5.8629342e+01 </wgt>
<wgt id='2179'> +5.8549533e+01 </wgt>
<wgt id='2180'> +5.8541921e+01 </wgt>
<wgt id='2181'> +5.8524742e+01 </wgt>
<wgt id='2182'> +5.8599835e+01 </wgt>
<wgt id='2183'> +5.8571185e+01 </wgt>
<wgt id='2184'> +5.8562709e+01 </wgt>
<wgt id='2185'> +5.8509486e+01 </wgt>
<wgt id='2186'> +5.8542908e+01 </wgt>
<wgt id='2187'> +5.8622696e+01 </wgt>
<wgt id='2188'> +5.8541749e+01 </wgt>
<wgt id='2189'> +5.8547214e+01 </wgt>
<wgt id='2190'> +5.8504569e+01 </wgt>
<wgt id='2191'> +5.8527959e+01 </wgt>
<wgt id='2192'> +5.8554933e+01 </wgt>
<wgt id='2193'> +5.8550728e+01 </wgt>
<wgt id='2194'> +5.8506945e+01 </wgt>
<wgt id='2195'> +5.8537207e+01 </wgt>
<wgt id='2196'> +5.8525561e+01 </wgt>
<wgt id='2197'> +5.8528794e+01 </wgt>
<wgt id='2198'> +5.8553298e+01 </wgt>
<wgt id='2199'> +5.8552721e+01 </wgt>
<wgt id='2200'> +5.8521652e+01 </wgt>
<wgt id='2201'> +5.8524878e+01 </wgt>
<wgt id='2202'> +5.8545073e+01 </wgt>
<wgt id='2203'> +5.8525384e+01 </wgt>
<wgt id='2204'> +5.8553474e+01 </wgt>
<wgt id='2205'> +5.8552516e+01 </wgt>
<wgt id='2206'> +5.8518371e+01 </wgt>
<wgt id='2207'> +5.8554165e+01 </wgt>
<wgt id='2208'> +5.8547433e+01 </wgt>
<wgt id='2209'> +5.8546659e+01 </wgt>
<wgt id='2210'> +5.8547721e+01 </wgt>
<wgt id='2211'> +5.8547747e+01 </wgt>
<wgt id='2212'> +5.8548002e+01 </wgt>
<wgt id='2213'> +5.8547639e+01 </wgt>
<wgt id='2214'> +5.8546967e+01 </wgt>
<wgt id='2215'> +5.7928980e+01 </wgt>
<wgt id='2216'> +5.5645430e+01 </wgt>
<wgt id='2217'> +5.8412924e+01 </wgt>
<wgt id='2218'> +5.9526487e+01 </wgt>
<wgt id='2219'> +6.1232253e+01 </wgt>
<wgt id='2220'> +5.4108252e+01 </wgt>
<wgt id='2221'> +5.5648203e+01 </wgt>
<wgt id='2222'> +5.9235561e+01 </wgt>
<wgt id='2223'> +6.0037938e+01 </wgt>
<wgt id='2224'> +5.8334024e+01 </wgt>
<wgt id='2225'> +5.8450912e+01 </wgt>
<wgt id='2226'> +5.6979962e+01 </wgt>
<wgt id='2227'> +5.7543192e+01 </wgt>
<wgt id='2228'> +5.7366805e+01 </wgt>
<wgt id='2229'> +5.7129071e+01 </wgt>
<wgt id='2230'> +5.7326503e+01 </wgt>
<wgt id='2231'> +5.7602277e+01 </wgt>
<wgt id='2232'> +5.4700747e+01 </wgt>
<wgt id='2233'> +5.2640973e+01 </wgt>
<wgt id='2234'> +5.7393025e+01 </wgt>
<wgt id='2235'> +6.0861030e+01 </wgt>
<wgt id='2236'> +6.1184110e+01 </wgt>
<wgt id='2237'> +6.0886617e+01 </wgt>
<wgt id='2238'> +5.9153019e+01 </wgt>
<wgt id='2239'> +5.7922671e+01 </wgt>
<wgt id='2240'> +5.7567213e+01 </wgt>
<wgt id='2241'> +5.7304413e+01 </wgt>
<wgt id='2242'> +5.5826459e+01 </wgt>
<wgt id='2243'> +5.6251683e+01 </wgt>
<wgt id='2244'> +5.7633195e+01 </wgt>
<wgt id='2245'> +5.9608160e+01 </wgt>
<wgt id='2246'> +6.0170376e+01 </wgt>
<wgt id='2247'> +5.8630015e+01 </wgt>
<wgt id='2248'> +6.0230708e+01 </wgt>
<wgt id='2249'> +5.7825534e+01 </wgt>
<wgt id='2250'> +6.1149711e+01 </wgt>
<wgt id='2251'> +5.7487878e+01 </wgt>
<wgt id='2252'> +5.6289299e+01 </wgt>
<wgt id='2253'> +5.6326297e+01 </wgt>
<wgt id='2254'> +5.7549724e+01 </wgt>
<wgt id='2255'> +5.8941232e+01 </wgt>
<wgt id='2256'> +5.9145235e+01 </wgt>
<wgt id='2257'> +5.7859299e+01 </wgt>
<wgt id='2258'> +5.8586758e+01 </wgt>
<wgt id='2259'> +5.8255074e+01 </wgt>
<wgt id='2260'> +5.9306389e+01 </wgt>
<wgt id='2261'> +5.6087217e+01 </wgt>
<wgt id='2262'> +5.7626397e+01 </wgt>
<wgt id='2263'> +5.7044838e+01 </wgt>
<wgt id='2264'> +5.9921017e+01 </wgt>
<wgt id='2265'> +5.9191164e+01 </wgt>
<wgt id='2266'> +5.9364780e+01 </wgt>
<wgt id='2267'> +5.8094439e+01 </wgt>
<wgt id='2268'> +5.5942543e+01 </wgt>
<wgt id='2269'> +5.8284258e+01 </wgt>
<wgt id='2270'> +5.8061447e+01 </wgt>
<wgt id='2271'> +5.4666340e+01 </wgt>
<wgt id='2272'> +5.7158276e+01 </wgt>
<wgt id='2273'> +5.8333777e+01 </wgt>
<wgt id='2274'> +5.7453477e+01 </wgt>
<wgt id='2275'> +6.0592856e+01 </wgt>
<wgt id='2276'> +5.6370314e+01 </wgt>
<wgt id='2277'> +5.7780537e+01 </wgt>
<wgt id='2278'> +5.5399881e+01 </wgt>
<wgt id='2279'> +5.3631522e+01 </wgt>
<wgt id='2280'> +6.0263222e+01 </wgt>
<wgt id='2281'> +5.7119784e+01 </wgt>
<wgt id='2282'> +6.1754516e+01 </wgt>
<wgt id='2283'> +5.7560052e+01 </wgt>
<wgt id='2284'> +5.7144739e+01 </wgt>
<wgt id='2285'> +5.8237830e+01 </wgt>
<wgt id='2286'> +5.8439136e+01 </wgt>
<wgt id='2287'> +5.5915500e+01 </wgt>
<wgt id='2288'> +5.7318764e+01 </wgt>
<wgt id='2289'> +5.8514448e+01 </wgt>
<wgt id='2290'> +5.7071802e+01 </wgt>
<wgt id='2291'> +5.9785107e+01 </wgt>
<wgt id='2292'> +5.7163487e+01 </wgt>
<wgt id='2293'> +5.9501485e+01 </wgt>
<wgt id='2294'> +5.7589699e+01 </wgt>
<wgt id='2295'> +5.9579886e+01 </wgt>
<wgt id='2296'> +5.9887130e+01 </wgt>
<wgt id='2297'> +6.0239637e+01 </wgt>
<wgt id='2298'> +5.7862480e+01 </wgt>
<wgt id='2299'> +5.8448372e+01 </wgt>
<wgt id='2300'> +5.7242188e+01 </wgt>
<wgt id='2301'> +5.7503740e+01 </wgt>
<wgt id='2302'> +5.8628183e+01 </wgt>
<wgt id='2303'> +5.8391734e+01 </wgt>
<wgt id='2304'> +5.5646849e+01 </wgt>
<wgt id='2305'> +5.8154109e+01 </wgt>
<wgt id='2306'> +6.0375906e+01 </wgt>
<wgt id='2307'> +6.0273256e+01 </wgt>
<wgt id='2308'> +5.7028345e+01 </wgt>
<wgt id='2309'> +5.8219692e+01 </wgt>
<wgt id='2310'> +5.4386512e+01 </wgt>
<wgt id='2311'> +5.7723626e+01 </wgt>
<wgt id='2312'> +5.6516428e+01 </wgt>
<wgt id='2313'> +5.8250857e+01 </wgt>
<wgt id='2314'> +5.8524931e+01 </wgt>
<wgt id='2315'> +5.4550390e+01 </wgt>
<wgt id='2316'> +5.7165988e+01 </wgt>
<wgt id='2317'> +5.8808336e+01 </wgt>
<wgt id='2318'> +5.9399107e+01 </wgt>
<wgt id='2319'> +6.5420036e+01 </wgt>
<wgt id='2320'> +7.5257188e+01 </wgt>
<wgt id='2321'> +5.5202879e+01 </wgt>
<wgt id='2322'> +7.0324692e+01 </wgt>
</rwgt>
</event>
<event>
13      3 +6.1139206e+01 2.37408000e+02 7.56146200e-03 1.03141100e-01
       21 -1    0    0  502  503 +0.0000000000e+00 +0.0000000000e+00 +5.3400768440e+02 5.3400768440e+02 0.0000000000e+00 0.0000e+00 1.0000e+00
       21 -1    0    0  505  504 -0.0000000000e+00 -0.0000000000e+00 -1.6939427897e+02 1.6939427897e+02 0.0000000000e+00 0.0000e+00 -1.0000e+00
       -6  2    1    2    0  504 +1.8178975262e+01 +1.5695982243e+02 +6.9007844957e+00 2.3462976010e+02 1.7331082627e+02 0.0000e+00 0.0000e+00
      -24  2    3    3    0    0 +3.2511496193e+01 +7.2160287715e+01 +6.8584815224e+01 1.2871104461e+02 7.4823469704e+01 0.0000e+00 0.0000e+00
        6  2    1    2  502    0 -1.5668639481e+01 -1.6988530123e+02 +2.1297967914e+02 3.2344156565e+02 1.7363058726e+02 0.0000e+00 0.0000e+00
       24  2    5    5    0    0 -3.4827650257e+01 -1.4920647289e+02 +8.6530403284e+01 1.9382068231e+02 8.1261364890e+01 0.0000e+00 0.0000e+00
        4  1    6    6  501    0 -1.5868561020e-01 -8.6825596343e+01 +8.6348314232e+01 1.2245301439e+02 0.0000000000e+00 0.0000e+00 -1.0000e+00
       -3  1    6    6    0  501 -3.4668964647e+01 -6.2380876546e+01 +1.8208905204e-01 7.1367667923e+01 0.0000000000e+00 0.0000e+00 1.0000e+00
        5  1    5    5  502    0 +1.9159010777e+01 -2.0678828338e+01 +1.2644927585e+02 1.2962088335e+02 4.1800000000e+00 0.0000e+00 -1.0000e+00
       13  1    4    4    0    0 +3.1385194459e+01 +6.2613378694e+01 +1.1687668798e+01 7.1007515269e+01 0.0000000000e+00 0.0000e+00 -1.0000e+00
      -14  1    4    4    0    0 +1.1263017331e+00 +9.5469090210e+00 +5.6897146427e+01 5.7703529346e+01 0.0000000000e+00 0.0000e+00 1.0000e+00
       -5  1    3    3    0  504 -1.4332520930e+01 +8.4799534712e+01 -6.1684030729e+01 1.0591871549e+02 4.1800000000e+00 0.0000e+00 1.0000e+00
       21  1    1    2  505  503 -2.5103357818e+00 +1.2925478800e+01 +1.4473294180e+02 1.4533063762e+02 0.0000000000e+00 0.0000e+00 1.0000e+00
<scales pt_clust_7="13000.00000" pt_clust_8="13000.00000" pt_clust_9="13000.00000" pt_clust_10="13000.00000" pt_clust_11="13000.00000" pt_clust_12="13000.00000" pt_clust_13="13.16700"></scales>
<mgrwt>
<rscale>  2 0.23734956E+03</rscale>
<asrwt>  1 0.13166996E+02</asrwt>
<pdfrwt beam="1">  2       21       21 0.82155027E-01 0.59697505E-01 0.13166996E+02 0.23740802E+03</pdfrwt>
<pdfrwt beam="2">  1       21 0.26060659E-01 0.23717426E+03</pdfrwt>
<totfact> 0.37289814E+01</totfact>
</mgrwt>
<clustering>
<clus scale="   13.167">  1 13  2 -1</clus>
<clus scale="   74.823"> 10 11 -1 -1</clus>
<clus scale="   81.261">  7  8 -1 -1</clus>
<clus scale="  173.311"> 10 12 -1 -1</clus>
<clus scale="  173.631">  7  9 -1 -1</clus>
<clus scale="  237.174">  2 10  1 -1</clus>
<clus scale="   13.167">  1  7  2 -1</clus>
</clustering>
<rwgt>
<wgt id='dummy'> +6.1139206e+01 </wgt>
<wgt id='ctGRe_0p_cQj18_0p_cQj38_0p_cQj11_0p_cjj31_0p_ctu8_0p_ctd8_0p_ctj8_0p_cQu8_0p_cQd8_0p_ctu1_0p_ctd1_0p_ctj1_0p_cQu1_0p_cQd1_0p'> +6.1139206e+01 </wgt>
<wgt id='ctGRe_1p_cQj18_0p_cQj38_0p_cQj11_0p_cjj31_0p_ctu8_0p_ctd8_0p_ctj8_0p_cQu8_0p_cQd8_0p_ctu1_0p_ctd1_0p_ctj1_0p_cQu1_0p_cQd1_0p'> +6.1491750e+01 </wgt>
<wgt id='ctGRe_0p_cQj18_1p_cQj38_0p_cQj11_0p_cjj31_0p_ctu8_0p_ctd8_0p_ctj8_0p_cQu8_0p_cQd8_0p_ctu1_0p_ctd1_0p_ctj1_0p_cQu1_0p_cQd1_0p'> +6.1139206e+01 </wgt>
<wgt id='ctGRe_0p_cQj18_0p_cQj38_1p_cQj11_0p_cjj31_0p_ctu8_0p_ctd8_0p_ctj8_0p_cQu8_0p_cQd8_0p_ctu1_0p_ctd1_0p_ctj1_0p_cQu1_0p_cQd1_0p'> +6.1139206e+01 </wgt>
<wgt id='ctGRe_0p_cQj18_0p_cQj38_0p_cQj11_1p_cjj31_0p_ctu8_0p_ctd8_0p_ctj8_0p_cQu8_0p_cQd8_0p_ctu1_0p_ctd1_0p_ctj1_0p_cQu1_0p_cQd1_0p'> +6.1139206e+01 </wgt>
<wgt id='ctGRe_0p_cQj18_0p_cQj38_0p_cQj11_0p_cjj31_1p_ctu8_0p_ctd8_0p_ctj8_0p_cQu8_0p_cQd8_0p_ctu1_0p_ctd1_0p_ctj1_0p_cQu1_0p_cQd1_0p'> +6.1139206e+01 </wgt>
<wgt id='ctGRe_0p_cQj18_0p_cQj38_0p_cQj11_0p_cjj31_0p_ctu8_1p_ctd8_0p_ctj8_0p_cQu8_0p_cQd8_0p_ctu1_0p_ctd1_0p_ctj1_0p_cQu1_0p_cQd1_0p'> +6.1139206e+01 </wgt>
<wgt id='ctGRe_0p_cQj18_0p_cQj38_0p_cQj11_0p_cjj31_0p_ctu8_0p_ctd8_1p_ctj8_0p_cQu8_0p_cQd8_0p_ctu1_0p_ctd1_0p_ctj1_0p_cQu1_0p_cQd1_0p'> +6.1139206e+01 </wgt>
<wgt id='ctGRe_0p_cQj18_0p_cQj38_0p_cQj11_0p_cjj31_0p_ctu8_0p_ctd8_0p_ctj8_1p_cQu8_0p_cQd8_0p_ctu1_0p_ctd1_0p_ctj1_0p_cQu1_0p_cQd1_0p'> +6.1139206e+01 </wgt>
<wgt id='ctGRe_0p_cQj18_0p_cQj38_0p_cQj11_0p_cjj31_0p_ctu8_0p_ctd8_0p_ctj8_0p_cQu8_1p_cQd8_0p_ctu1_0p_ctd1_0p_ctj1_0p_cQu1_0p_cQd1_0p'> +6.1139206e+01 </wgt>
<wgt id='ctGRe_0p_cQj18_0p_cQj38_0p_cQj11_0p_cjj31_0p_ctu8_0p_ctd8_0p_ctj8_0p_cQu8_0p_cQd8_1p_ctu1_0p_ctd1_0p_ctj1_0p_cQu1_0p_cQd1_0p'> +6.1139206e+01 </wgt>
<wgt id='ctGRe_0p_cQj18_0p_cQj38_0p_cQj11_0p_cjj31_0p_ctu8_0p_ctd8_0p_ctj8_0p_cQu8_0p_cQd8_0p_ctu1_1p_ctd1_0p_ctj1_0p_cQu1_0p_cQd1_0p'> +6.1139206e+01 </wgt>
<wgt id='ctGRe_0p_cQj18_0p_cQj38_0p_cQj11_0p_cjj31_0p_ctu8_0p_ctd8_0p_ctj8_0p_cQu8_0p_cQd8_0p_ctu1_0p_ctd1_1p_ctj1_0p_cQu1_0p_cQd1_0p'> +6.1139206e+01 </wgt>
<wgt id='ctGRe_0p_cQj18_0p_cQj38_0p_cQj11_0p_cjj31_0p_ctu8_0p_ctd8_0p_ctj8_0p_cQu8_0p_cQd8_0p_ctu1_0p_ctd1_0p_ctj1_1p_cQu1_0p_cQd1_0p'> +6.1139206e+01 </wgt>
<wgt id='ctGRe_0p_cQj18_0p_cQj38_0p_cQj11_0p_cjj31_0p_ctu8_0p_ctd8_0p_ctj8_0p_cQu8_0p_cQd8_0p_ctu1_0p_ctd1_0p_ctj1_0p_cQu1_1p_cQd1_0p'> +6.1139206e+01 </wgt>
<wgt id='ctGRe_0p_cQj18_0p_cQj38_0p_cQj11_0p_cjj31_0p_ctu8_0p_ctd8_0p_ctj8_0p_cQu8_0p_cQd8_0p_ctu1_0p_ctd1_0p_ctj1_0p_cQu1_0p_cQd1_1p'> +6.1139206e+01 </wgt>
<wgt id='ctGRe_2p_cQj18_0p_cQj38_0p_cQj11_0p_cjj31_0p_ctu8_0p_ctd8_0p_ctj8_0p_cQu8_0p_cQd8_0p_ctu1_0p_ctd1_0p_ctj1_0p_cQu1_0p_cQd1_0p'> +6.7219977e+01 </wgt>
<wgt id='ctGRe_1p_cQj18_1p_cQj38_0p_cQj11_0p_cjj31_0p_ctu8_0p_ctd8_0p_ctj8_0p_cQu8_0p_cQd8_0p_ctu1_0p_ctd1_0p_ctj1_0p_cQu1_0p_cQd1_0p'> +6.1491750e+01 </wgt>
<wgt id='ctGRe_1p_cQj18_0p_cQj38_1p_cQj11_0p_cjj31_0p_ctu8_0p_ctd8_0p_ctj8_0p_cQu8_0p_cQd8_0p_ctu1_0p_ctd1_0p_ctj1_0p_cQu1_0p_cQd1_0p'> +6.1491750e+01 </wgt>
<wgt id='ctGRe_1p_cQj18_0p_cQj38_0p_cQj11_1p_cjj31_0p_ctu8_0p_ctd8_0p_ctj8_0p_cQu8_0p_cQd8_0p_ctu1_0p_ctd1_0p_ctj1_0p_cQu1_0p_cQd1_0p'> +6.1491750e+01 </wgt>
<wgt id='ctGRe_1p_cQj18_0p_cQj38_0p_cQj11_0p_cjj31_1p_ctu8_0p_ctd8_0p_ctj8_0p_cQu8_0p_cQd8_0p_ctu1_0p_ctd1_0p_ctj1_0p_cQu1_0p_cQd1_0p'> +6.1491750e+01 </wgt>
<wgt id='ctGRe_1p_cQj18_0p_cQj38_0p_cQj11_0p_cjj31_0p_ctu8_1p_ctd8_0p_ctj8_0p_cQu8_0p_cQd8_0p_ctu1_0p_ctd1_0p_ctj1_0p_cQu1_0p_cQd1_0p'> +6.1491750e+01 </wgt>
<wgt id='ctGRe_1p_cQj18_0p_cQj38_0p_cQj11_0p_cjj31_0p_ctu8_0p_ctd8_1p_ctj8_0p_cQu8_0p_cQd8_0p_ctu1_0p_ctd1_0p_ctj1_0p_cQu1_0p_cQd1_0p'> +6.1491750e+01 </wgt>
<wgt id='ctGRe_1p_cQj18_0p_cQj38_0p_cQj11_0p_cjj31_0p_ctu8_0p_ctd8_0p_ctj8_1p_cQu8_0p_cQd8_0p_ctu1_0p_ctd1_0p_ctj1_0p_cQu1_0p_cQd1_0p'> +6.1491750e+01 </wgt>
<wgt id='ctGRe_1p_cQj18_0p_cQj38_0p_cQj11_0p_cjj31_0p_ctu8_0p_ctd8_0p_ctj8_0p_cQu8_1p_cQd8_0p_ctu1_0p_ctd1_0p_ctj1_0p_cQu1_0p_cQd1_0p'> +6.1491750e+01 </wgt>
<wgt id='ctGRe_1p_cQj18_0p_cQj38_0p_cQj11_0p_cjj31_0p_ctu8_0p_ctd8_0p_ctj8_0p_cQu8_0p_cQd8_1p_ctu1_0p_ctd1_0p_ctj1_0p_cQu1_0p_cQd1_0p'> +6.1491750e+01 </wgt>
<wgt id='ctGRe_1p_cQj18_0p_cQj38_0p_cQj11_0p_cjj31_0p_ctu8_0p_ctd8_0p_ctj8_0p_cQu8_0p_cQd8_0p_ctu1_1p_ctd1_0p_ctj1_0p_cQu1_0p_cQd1_0p'> +6.1491750e+01 </wgt>
<wgt id='ctGRe_1p_cQj18_0p_cQj38_0p_cQj11_0p_cjj31_0p_ctu8_0p_ctd8_0p_ctj8_0p_cQu8_0p_cQd8_0p_ctu1_0p_ctd1_1p_ctj1_0p_cQu1_0p_cQd1_0p'> +6.1491750e+01 </wgt>
<wgt id='ctGRe_1p_cQj18_0p_cQj38_0p_cQj11_0p_cjj31_0p_ctu8_0p_ctd8_0p_ctj8_0p_cQu8_0p_cQd8_0p_ctu1_0p_ctd1_0p_ctj1_1p_cQu1_0p_cQd1_0p'> +6.1491750e+01 </wgt>
<wgt id='ctGRe_1p_cQj18_0p_cQj38_0p_cQj11_0p_cjj31_0p_ctu8_0p_ctd8_0p_ctj8_0p_cQu8_0p_cQd8_0p_ctu1_0p_ctd1_0p_ctj1_0p_cQu1_1p_cQd1_0p'> +6.1491750e+01 </wgt>
<wgt id='ctGRe_1p_cQj18_0p_cQj38_0p_cQj11_0p_cjj31_0p_ctu8_0p_ctd8_0p_ctj8_0p_cQu8_0p_cQd8_0p_ctu1_0p_ctd1_0p_ctj1_0p_cQu1_0p_cQd1_1p'> +6.1491750e+01 </wgt>
<wgt id='ctGRe_0p_cQj18_2p_cQj38_0p_cQj11_0p_cjj31_0p_ctu8_0p_ctd8_0p_ctj8_0p_cQu8_0p_cQd8_0p_ctu1_0p_ctd1_0p_ctj1_0p_cQu1_0p_cQd1_0p'> +6.1139206e+01 </wgt>
<wgt id='ctGRe_0p_cQj18_1p_cQj38_1p_cQj11_0p_cjj31_0p_ctu8_0p_ctd8_0p_ctj8_0p_cQu8_0p_cQd8_0p_ctu1_0p_ctd1_0p_ctj1_0p_cQu1_0p_cQd1_0p'> +6.1139206e+01 </wgt>
<wgt id='ctGRe_0p_cQj18_1p_cQj38_0p_cQj11_1p_cjj31_0p_ctu8_0p_ctd8_0p_ctj8_0p_cQu8_0p_cQd8_0p_ctu1_0p_ctd1_0p_ctj1_0p_cQu1_0p_cQd1_0p'> +6.1139206e+01 </wgt>
<wgt id='ctGRe_0p_cQj18_1p_cQj38_0p_cQj11_0p_cjj31_1p_ctu8_0p_ctd8_0p_ctj8_0p_cQu8_0p_cQd8_0p_ctu1_0p_ctd1_0p_ctj1_0p_cQu1_0p_cQd1_0p'> +6.1139206e+01 </wgt>
<wgt id='ctGRe_0p_cQj18_1p_cQj38_0p_cQj11_0p_cjj31_0p_ctu8_1p_ctd8_0p_ctj8_0p_cQu8_0p_cQd8_0p_ctu1_0p_ctd1_0p_ctj1_0p_cQu1_0p_cQd1_0p'> +6.1139206e+01 </wgt>
<wgt id='ctGRe_0p_cQj18_1p_cQj38_0p_cQj11_0p_cjj31_0p_ctu8_0p_ctd8_1p_ctj8_0p_cQu8_0p_cQd8_0p_ctu1_0p_ctd1_0p_ctj1_0p_cQu1_0p_cQd1_0p'> +6.1139206e+01 </wgt>
<wgt id='ctGRe_0p_cQj18_1p_cQj38_0p_cQj11_0p_cjj31_0p_ctu8_0p_ctd8_0p_ctj8_1p_cQu8_0p_cQd8_0p_ctu1_0p_ctd1_0p_ctj1_0p_cQu1_0p_cQd1_0p'> +6.1139206e+01 </wgt>
<wgt id='ctGRe_0p_cQj18_1p_cQj38_0p_cQj11_0p_cjj31_0p_ctu8_0p_ctd8_0p_ctj8_0p_cQu8_1p_cQd8_0p_ctu1_0p_ctd1_0p_ctj1_0p_cQu1_0p_cQd1_0p'> +6.1139206e+01 </wgt>
<wgt id='ctGRe_0p_cQj18_1p_cQj38_0p_cQj11_0p_cjj31_0p_ctu8_0p_ctd8_0p_ctj8_0p_cQu8_0p_cQd8_1p_ctu1_0p_ctd1_0p_ctj1_0p_cQu1_0p_cQd1_0p'> +6.1139206e+01 </wgt>
<wgt id='ctGRe_0p_cQj18_1p_cQj38_0p_cQj11_0p_cjj31_0p_ctu8_0p_ctd8_0p_ctj8_0p_cQu8_0p_cQd8_0p_ctu1_1p_ctd1_0p_ctj1_0p_cQu1_0p_cQd1_0p'> +6.1139206e+01 </wgt>
<wgt id='ctGRe_0p_cQj18_1p_cQj38_0p_cQj11_0p_cjj31_0p_ctu8_0p_ctd8_0p_ctj8_0p_cQu8_0p_cQd8_0p_ctu1_0p_ctd1_1p_ctj1_0p_cQu1_0p_cQd1_0p'> +6.1139206e+01 </wgt>
<wgt id='ctGRe_0p_cQj18_1p_cQj38_0p_cQj11_0p_cjj31_0p_ctu8_0p_ctd8_0p_ctj8_0p_cQu8_0p_cQd8_0p_ctu1_0p_ctd1_0p_ctj1_1p_cQu1_0p_cQd1_0p'> +6.1139206e+01 </wgt>
<wgt id='ctGRe_0p_cQj18_1p_cQj38_0p_cQj11_0p_cjj31_0p_ctu8_0p_ctd8_0p_ctj8_0p_cQu8_0p_cQd8_0p_ctu1_0p_ctd1_0p_ctj1_0p_cQu1_1p_cQd1_0p'> +6.1139206e+01 </wgt>
<wgt id='ctGRe_0p_cQj18_1p_cQj38_0p_cQj11_0p_cjj31_0p_ctu8_0p_ctd8_0p_ctj8_0p_cQu8_0p_cQd8_0p_ctu1_0p_ctd1_0p_ctj1_0p_cQu1_0p_cQd1_1p'> +6.1139206e+01 </wgt>
<wgt id='ctGRe_0p_cQj18_0p_cQj38_2p_cQj11_0p_cjj31_0p_ctu8_0p_ctd8_0p_ctj8_0p_cQu8_0p_cQd8_0p_ctu1_0p_ctd1_0p_ctj1_0p_cQu1_0p_cQd1_0p'> +6.1139206e+01 </wgt>
<wgt id='ctGRe_0p_cQj18_0p_cQj38_1p_cQj11_1p_cjj31_0p_ctu8_0p_ctd8_0p_ctj8_0p_cQu8_0p_cQd8_0p_ctu1_0p_ctd1_0p_ctj1_0p_cQu1_0p_cQd1_0p'> +6.1139206e+01 </wgt>
<wgt id='ctGRe_0p_cQj18_0p_cQj38_1p_cQj11_0p_cjj31_1p_ctu8_0p_ctd8_0p_ctj8_0p_cQu8_0p_cQd8_0p_ctu1_0p_ctd1_0p_ctj1_0p_cQu1_0p_cQd1_0p'> +6.1139206e+01 </wgt>
<wgt id='ctGRe_0p_cQj18_0p_cQj38_1p_cQj11_0p_cjj31_0p_ctu8_1p_ctd8_0p_ctj8_0p_cQu8_0p_cQd8_0p_ctu1_0p_ctd1_0p_ctj1_0p_cQu1_0p_cQd1_0p'> +6.1139206e+01 </wgt>
<wgt id='ctGRe_0p_cQj18_0p_cQj38_1p_cQj11_0p_cjj31_0p_ctu8_0p_ctd8_1p_ctj8_0p_cQu8_0p_cQd8_0p_ctu1_0p_ctd1_0p_ctj1_0p_cQu1_0p_cQd1_0p'> +6.1139206e+01 </wgt>
<wgt id='ctGRe_0p_cQj18_0p_cQj38_1p_cQj11_0p_cjj31_0p_ctu8_0p_ctd8_0p_ctj8_1p_cQu8_0p_cQd8_0p_ctu1_0p_ctd1_0p_ctj1_0p_cQu1_0p_cQd1_0p'> +6.1139206e+01 </wgt>
<wgt id='ctGRe_0p_cQj18_0p_cQj38_1p_cQj11_0p_cjj31_0p_ctu8_0p_ctd8_0p_ctj8_0p_cQu8_1p_cQd8_0p_ctu1_0p_ctd1_0p_ctj1_0p_cQu1_0p_cQd1_0p'> +6.1139206e+01 </wgt>
<wgt id='ctGRe_0p_cQj18_0p_cQj38_1p_cQj11_0p_cjj31_0p_ctu8_0p_ctd8_0p_ctj8_0p_cQu8_0p_cQd8_1p_ctu1_0p_ctd1_0p_ctj1_0p_cQu1_0p_cQd1_0p'> +6.1139206e+01 </wgt>
<wgt id='ctGRe_0p_cQj18_0p_cQj38_1p_cQj11_0p_cjj31_0p_ctu8_0p_ctd8_0p_ctj8_0p_cQu8_0p_cQd8_0p_ctu1_1p_ctd1_0p_ctj1_0p_cQu1_0p_cQd1_0p'> +6.1139206e+01 </wgt>
<wgt id='ctGRe_0p_cQj18_0p_cQj38_1p_cQj11_0p_cjj31_0p_ctu8_0p_ctd8_0p_ctj8_0p_cQu8_0p_cQd8_0p_ctu1_0p_ctd1_1p_ctj1_0p_cQu1_0p_cQd1_0p'> +6.1139206e+01 </wgt>
<wgt id='ctGRe_0p_cQj18_0p_cQj38_1p_cQj11_0p_cjj31_0p_ctu8_0p_ctd8_0p_ctj8_0p_cQu8_0p_cQd8_0p_ctu1_0p_ctd1_0p_ctj1_1p_cQu1_0p_cQd1_0p'> +6.1139206e+01 </wgt>
<wgt id='ctGRe_0p_cQj18_0p_cQj38_1p_cQj11_0p_cjj31_0p_ctu8_0p_ctd8_0p_ctj8_0p_cQu8_0p_cQd8_0p_ctu1_0p_ctd1_0p_ctj1_0p_cQu1_1p_cQd1_0p'> +6.1139206e+01 </wgt>
<wgt id='ctGRe_0p_cQj18_0p_cQj38_1p_cQj11_0p_cjj31_0p_ctu8_0p_ctd8_0p_ctj8_0p_cQu8_0p_cQd8_0p_ctu1_0p_ctd1_0p_ctj1_0p_cQu1_0p_cQd1_1p'> +6.1139206e+01 </wgt>
<wgt id='ctGRe_0p_cQj18_0p_cQj38_0p_cQj11_2p_cjj31_0p_ctu8_0p_ctd8_0p_ctj8_0p_cQu8_0p_cQd8_0p_ctu1_0p_ctd1_0p_ctj1_0p_cQu1_0p_cQd1_0p'> +6.1139206e+01 </wgt>
<wgt id='ctGRe_0p_cQj18_0p_cQj38_0p_cQj11_1p_cjj31_1p_ctu8_0p_ctd8_0p_ctj8_0p_cQu8_0p_cQd8_0p_ctu1_0p_ctd1_0p_ctj1_0p_cQu1_0p_cQd1_0p'> +6.1139206e+01 </wgt>
<wgt id='ctGRe_0p_cQj18_0p_cQj38_0p_cQj11_1p_cjj31_0p_ctu8_1p_ctd8_0p_ctj8_0p_cQu8_0p_cQd8_0p_ctu1_0p_ctd1_0p_ctj1_0p_cQu1_0p_cQd1_0p'> +6.1139206e+01 </wgt>
<wgt id='ctGRe_0p_cQj18_0p_cQj38_0p_cQj11_1p_cjj31_0p_ctu8_0p_ctd8_1p_ctj8_0p_cQu8_0p_cQd8_0p_ctu1_0p_ctd1_0p_ctj1_0p_cQu1_0p_cQd1_0p'> +6.1139206e+01 </wgt>
<wgt id='ctGRe_0p_cQj18_0p_cQj38_0p_cQj11_1p_cjj31_0p_ctu8_0p_ctd8_0p_ctj8_1p_cQu8_0p_cQd8_0p_ctu1_0p_ctd1_0p_ctj1_0p_cQu1_0p_cQd1_0p'> +6.1139206e+01 </wgt>
<wgt id='ctGRe_0p_cQj18_0p_cQj38_0p_cQj11_1p_cjj31_0p_ctu8_0p_ctd8_0p_ctj8_0p_cQu8_1p_cQd8_0p_ctu1_0p_ctd1_0p_ctj1_0p_cQu1_0p_cQd1_0p'> +6.1139206e+01 </wgt>
<wgt id='ctGRe_0p_cQj18_0p_cQj38_0p_cQj11_1p_cjj31_0p_ctu8_0p_ctd8_0p_ctj8_0p_cQu8_0p_cQd8_1p_ctu1_0p_ctd1_0p_ctj1_0p_cQu1_0p_cQd1_0p'> +6.1139206e+01 </wgt>
<wgt id='ctGRe_0p_cQj18_0p_cQj38_0p_cQj11_1p_cjj31_0p_ctu8_0p_ctd8_0p_ctj8_0p_cQu8_0p_cQd8_0p_ctu1_1p_ctd1_0p_ctj1_0p_cQu1_0p_cQd1_0p'> +6.1139206e+01 </wgt>
<wgt id='ctGRe_0p_cQj18_0p_cQj38_0p_cQj11_1p_cjj31_0p_ctu8_0p_ctd8_0p_ctj8_0p_cQu8_0p_cQd8_0p_ctu1_0p_ctd1_1p_ctj1_0p_cQu1_0p_cQd1_0p'> +6.1139206e+01 </wgt>
<wgt id='ctGRe_0p_cQj18_0p_cQj38_0p_cQj11_1p_cjj31_0p_ctu8_0p_ctd8_0p_ctj8_0p_cQu8_0p_cQd8_0p_ctu1_0p_ctd1_0p_ctj1_1p_cQu1_0p_cQd1_0p'> +6.1139206e+01 </wgt>
<wgt id='ctGRe_0p_cQj18_0p_cQj38_0p_cQj11_1p_cjj31_0p_ctu8_0p_ctd8_0p_ctj8_0p_cQu8_0p_cQd8_0p_ctu1_0p_ctd1_0p_ctj1_0p_cQu1_1p_cQd1_0p'> +6.1139206e+01 </wgt>
<wgt id='ctGRe_0p_cQj18_0p_cQj38_0p_cQj11_1p_cjj31_0p_ctu8_0p_ctd8_0p_ctj8_0p_cQu8_0p_cQd8_0p_ctu1_0p_ctd1_0p_ctj1_0p_cQu1_0p_cQd1_1p'> +6.1139206e+01 </wgt>
<wgt id='ctGRe_0p_cQj18_0p_cQj38_0p_cQj11_0p_cjj31_2p_ctu8_0p_ctd8_0p_ctj8_0p_cQu8_0p_cQd8_0p_ctu1_0p_ctd1_0p_ctj1_0p_cQu1_0p_cQd1_0p'> +6.1139206e+01 </wgt>
<wgt id='ctGRe_0p_cQj18_0p_cQj38_0p_cQj11_0p_cjj31_1p_ctu8_1p_ctd8_0p_ctj8_0p_cQu8_0p_cQd8_0p_ctu1_0p_ctd1_0p_ctj1_0p_cQu1_0p_cQd1_0p'> +6.1139206e+01 </wgt>
<wgt id='ctGRe_0p_cQj18_0p_cQj38_0p_cQj11_0p_cjj31_1p_ctu8_0p_ctd8_1p_ctj8_0p_cQu8_0p_cQd8_0p_ctu1_0p_ctd1_0p_ctj1_0p_cQu1_0p_cQd1_0p'> +6.1139206e+01 </wgt>
<wgt id='ctGRe_0p_cQj18_0p_cQj38_0p_cQj11_0p_cjj31_1p_ctu8_0p_ctd8_0p_ctj8_1p_cQu8_0p_cQd8_0p_ctu1_0p_ctd1_0p_ctj1_0p_cQu1_0p_cQd1_0p'> +6.1139206e+01 </wgt>
<wgt id='ctGRe_0p_cQj18_0p_cQj38_0p_cQj11_0p_cjj31_1p_ctu8_0p_ctd8_0p_ctj8_0p_cQu8_1p_cQd8_0p_ctu1_0p_ctd1_0p_ctj1_0p_cQu1_0p_cQd1_0p'> +6.1139206e+01 </wgt>
<wgt id='ctGRe_0p_cQj18_0p_cQj38_0p_cQj11_0p_cjj31_1p_ctu8_0p_ctd8_0p_ctj8_0p_cQu8_0p_cQd8_1p_ctu1_0p_ctd1_0p_ctj1_0p_cQu1_0p_cQd1_0p'> +6.1139206e+01 </wgt>
<wgt id='ctGRe_0p_cQj18_0p_cQj38_0p_cQj11_0p_cjj31_1p_ctu8_0p_ctd8_0p_ctj8_0p_cQu8_0p_cQd8_0p_ctu1_1p_ctd1_0p_ctj1_0p_cQu1_0p_cQd1_0p'> +6.1139206e+01 </wgt>
<wgt id='ctGRe_0p_cQj18_0p_cQj38_0p_cQj11_0p_cjj31_1p_ctu8_0p_ctd8_0p_ctj8_0p_cQu8_0p_cQd8_0p_ctu1_0p_ctd1_1p_ctj1_0p_cQu1_0p_cQd1_0p'> +6.1139206e+01 </wgt>
<wgt id='ctGRe_0p_cQj18_0p_cQj38_0p_cQj11_0p_cjj31_1p_ctu8_0p_ctd8_0p_ctj8_0p_cQu8_0p_cQd8_0p_ctu1_0p_ctd1_0p_ctj1_1p_cQu1_0p_cQd1_0p'> +6.1139206e+01 </wgt>
<wgt id='ctGRe_0p_cQj18_0p_cQj38_0p_cQj11_0p_cjj31_1p_ctu8_0p_ctd8_0p_ctj8_0p_cQu8_0p_cQd8_0p_ctu1_0p_ctd1_0p_ctj1_0p_cQu1_1p_cQd1_0p'> +6.1139206e+01 </wgt>
<wgt id='ctGRe_0p_cQj18_0p_cQj38_0p_cQj11_0p_cjj31_1p_ctu8_0p_ctd8_0p_ctj8_0p_cQu8_0p_cQd8_0p_ctu1_0p_ctd1_0p_ctj1_0p_cQu1_0p_cQd1_1p'> +6.1139206e+01 </wgt>
<wgt id='ctGRe_0p_cQj18_0p_cQj38_0p_cQj11_0p_cjj31_0p_ctu8_2p_ctd8_0p_ctj8_0p_cQu8_0p_cQd8_0p_ctu1_0p_ctd1_0p_ctj1_0p_cQu1_0p_cQd1_0p'> +6.1139206e+01 </wgt>
<wgt id='ctGRe_0p_cQj18_0p_cQj38_0p_cQj11_0p_cjj31_0p_ctu8_1p_ctd8_1p_ctj8_0p_cQu8_0p_cQd8_0p_ctu1_0p_ctd1_0p_ctj1_0p_cQu1_0p_cQd1_0p'> +6.1139206e+01 </wgt>
<wgt id='ctGRe_0p_cQj18_0p_cQj38_0p_cQj11_0p_cjj31_0p_ctu8_1p_ctd8_0p_ctj8_1p_cQu8_0p_cQd8_0p_ctu1_0p_ctd1_0p_ctj1_0p_cQu1_0p_cQd1_0p'> +6.1139206e+01 </wgt>
<wgt id='ctGRe_0p_cQj18_0p_cQj38_0p_cQj11_0p_cjj31_0p_ctu8_1p_ctd8_0p_ctj8_0p_cQu8_1p_cQd8_0p_ctu1_0p_ctd1_0p_ctj1_0p_cQu1_0p_cQd1_0p'> +6.1139206e+01 </wgt>
<wgt id='ctGRe_0p_cQj18_0p_cQj38_0p_cQj11_0p_cjj31_0p_ctu8_1p_ctd8_0p_ctj8_0p_cQu8_0p_cQd8_1p_ctu1_0p_ctd1_0p_ctj1_0p_cQu1_0p_cQd1_0p'> +6.1139206e+01 </wgt>
<wgt id='ctGRe_0p_cQj18_0p_cQj38_0p_cQj11_0p_cjj31_0p_ctu8_1p_ctd8_0p_ctj8_0p_cQu8_0p_cQd8_0p_ctu1_1p_ctd1_0p_ctj1_0p_cQu1_0p_cQd1_0p'> +6.1139206e+01 </wgt>
<wgt id='ctGRe_0p_cQj18_0p_cQj38_0p_cQj11_0p_cjj31_0p_ctu8_1p_ctd8_0p_ctj8_0p_cQu8_0p_cQd8_0p_ctu1_0p_ctd1_1p_ctj1_0p_cQu1_0p_cQd1_0p'> +6.1139206e+01 </wgt>
<wgt id='ctGRe_0p_cQj18_0p_cQj38_0p_cQj11_0p_cjj31_0p_ctu8_1p_ctd8_0p_ctj8_0p_cQu8_0p_cQd8_0p_ctu1_0p_ctd1_0p_ctj1_1p_cQu1_0p_cQd1_0p'> +6.1139206e+01 </wgt>
<wgt id='ctGRe_0p_cQj18_0p_cQj38_0p_cQj11_0p_cjj31_0p_ctu8_1p_ctd8_0p_ctj8_0p_cQu8_0p_cQd8_0p_ctu1_0p_ctd1_0p_ctj1_0p_cQu1_1p_cQd1_0p'> +6.1139206e+01 </wgt>
<wgt id='ctGRe_0p_cQj18_0p_cQj38_0p_cQj11_0p_cjj31_0p_ctu8_1p_ctd8_0p_ctj8_0p_cQu8_0p_cQd8_0p_ctu1_0p_ctd1_0p_ctj1_0p_cQu1_0p_cQd1_1p'> +6.1139206e+01 </wgt>
<wgt id='ctGRe_0p_cQj18_0p_cQj38_0p_cQj11_0p_cjj31_0p_ctu8_0p_ctd8_2p_ctj8_0p_cQu8_0p_cQd8_0p_ctu1_0p_ctd1_0p_ctj1_0p_cQu1_0p_cQd1_0p'> +6.1139206e+01 </wgt>
<wgt id='ctGRe_0p_cQj18_0p_cQj38_0p_cQj11_0p_cjj31_0p_ctu8_0p_ctd8_1p_ctj8_1p_cQu8_0p_cQd8_0p_ctu1_0p_ctd1_0p_ctj1_0p_cQu1_0p_cQd1_0p'> +6.1139206e+01 </wgt>
<wgt id='ctGRe_0p_cQj18_0p_cQj38_0p_cQj11_0p_cjj31_0p_ctu8_0p_ctd8_1p_ctj8_0p_cQu8_1p_cQd8_0p_ctu1_0p_ctd1_0p_ctj1_0p_cQu1_0p_cQd1_0p'> +6.1139206e+01 </wgt>
<wgt id='ctGRe_0p_cQj18_0p_cQj38_0p_cQj11_0p_cjj31_0p_ctu8_0p_ctd8_1p_ctj8_0p_cQu8_0p_cQd8_1p_ctu1_0p_ctd1_0p_ctj1_0p_cQu1_0p_cQd1_0p'> +6.1139206e+01 </wgt>
<wgt id='ctGRe_0p_cQj18_0p_cQj38_0p_cQj11_0p_cjj31_0p_ctu8_0p_ctd8_1p_ctj8_0p_cQu8_0p_cQd8_0p_ctu1_1p_ctd1_0p_ctj1_0p_cQu1_0p_cQd1_0p'> +6.1139206e+01 </wgt>
<wgt id='ctGRe_0p_cQj18_0p_cQj38_0p_cQj11_0p_cjj31_0p_ctu8_0p_ctd8_1p_ctj8_0p_cQu8_0p_cQd8_0p_ctu1_0p_ctd1_1p_ctj1_0p_cQu1_0p_cQd1_0p'> +6.1139206e+01 </wgt>
<wgt id='ctGRe_0p_cQj18_0p_cQj38_0p_cQj11_0p_cjj31_0p_ctu8_0p_ctd8_1p_ctj8_0p_cQu8_0p_cQd8_0p_ctu1_0p_ctd1_0p_ctj1_1p_cQu1_0p_cQd1_0p'> +6.1139206e+01 </wgt>
<wgt id='ctGRe_0p_cQj18_0p_cQj38_0p_cQj11_0p_cjj31_0p_ctu8_0p_ctd8_1p_ctj8_0p_cQu8_0p_cQd8_0p_ctu1_0p_ctd1_0p_ctj1_0p_cQu1_1p_cQd1_0p'> +6.1139206e+01 </wgt>
<wgt id='ctGRe_0p_cQj18_0p_cQj38_0p_cQj11_0p_cjj31_0p_ctu8_0p_ctd8_1p_ctj8_0p_cQu8_0p_cQd8_0p_ctu1_0p_ctd1_0p_ctj1_0p_cQu1_0p_cQd1_1p'> +6.1139206e+01 </wgt>
<wgt id='ctGRe_0p_cQj18_0p_cQj38_0p_cQj11_0p_cjj31_0p_ctu8_0p_ctd8_0p_ctj8_2p_cQu8_0p_cQd8_0p_ctu1_0p_ctd1_0p_ctj1_0p_cQu1_0p_cQd1_0p'> +6.1139206e+01 </wgt>
<wgt id='ctGRe_0p_cQj18_0p_cQj38_0p_cQj11_0p_cjj31_0p_ctu8_0p_ctd8_0p_ctj8_1p_cQu8_1p_cQd8_0p_ctu1_0p_ctd1_0p_ctj1_0p_cQu1_0p_cQd1_0p'> +6.1139206e+01 </wgt>
<wgt id='ctGRe_0p_cQj18_0p_cQj38_0p_cQj11_0p_cjj31_0p_ctu8_0p_ctd8_0p_ctj8_1p_cQu8_0p_cQd8_1p_ctu1_0p_ctd1_0p_ctj1_0p_cQu1_0p_cQd1_0p'> +6.1139206e+01 </wgt>
<wgt id='ctGRe_0p_cQj18_0p_cQj38_0p_cQj11_0p_cjj31_0p_ctu8_0p_ctd8_0p_ctj8_1p_cQu8_0p_cQd8_0p_ctu1_1p_ctd1_0p_ctj1_0p_cQu1_0p_cQd1_0p'> +6.1139206e+01 </wgt>
<wgt id='ctGRe_0p_cQj18_0p_cQj38_0p_cQj11_0p_cjj31_0p_ctu8_0p_ctd8_0p_ctj8_1p_cQu8_0p_cQd8_0p_ctu1_0p_ctd1_1p_ctj1_0p_cQu1_0p_cQd1_0p'> +6.1139206e+01 </wgt>
<wgt id='ctGRe_0p_cQj18_0p_cQj38_0p_cQj11_0p_cjj31_0p_ctu8_0p_ctd8_0p_ctj8_1p_cQu8_0p_cQd8_0p_ctu1_0p_ctd1_0p_ctj1_1p_cQu1_0p_cQd1_0p'> +6.1139206e+01 </wgt>
<wgt id='ctGRe_0p_cQj18_0p_cQj38_0p_cQj11_0p_cjj31_0p_ctu8_0p_ctd8_0p_ctj8_1p_cQu8_0p_cQd8_0p_ctu1_0p_ctd1_0p_ctj1_0p_cQu1_1p_cQd1_0p'> +6.1139206e+01 </wgt>
<wgt id='ctGRe_0p_cQj18_0p_cQj38_0p_cQj11_0p_cjj31_0p_ctu8_0p_ctd8_0p_ctj8_1p_cQu8_0p_cQd8_0p_ctu1_0p_ctd1_0p_ctj1_0p_cQu1_0p_cQd1_1p'> +6.1139206e+01 </wgt>
<wgt id='ctGRe_0p_cQj18_0p_cQj38_0p_cQj11_0p_cjj31_0p_ctu8_0p_ctd8_0p_ctj8_0p_cQu8_2p_cQd8_0p_ctu1_0p_ctd1_0p_ctj1_0p_cQu1_0p_cQd1_0p'> +6.1139206e+01 </wgt>
<wgt id='ctGRe_0p_cQj18_0p_cQj38_0p_cQj11_0p_cjj31_0p_ctu8_0p_ctd8_0p_ctj8_0p_cQu8_1p_cQd8_1p_ctu1_0p_ctd1_0p_ctj1_0p_cQu1_0p_cQd1_0p'> +6.1139206e+01 </wgt>
<wgt id='ctGRe_0p_cQj18_0p_cQj38_0p_cQj11_0p_cjj31_0p_ctu8_0p_ctd8_0p_ctj8_0p_cQu8_1p_cQd8_0p_ctu1_1p_ctd1_0p_ctj1_0p_cQu1_0p_cQd1_0p'> +6.1139206e+01 </wgt>
<wgt id='ctGRe_0p_cQj18_0p_cQj38_0p_cQj11_0p_cjj31_0p_ctu8_0p_ctd8_0p_ctj8_0p_cQu8_1p_cQd8_0p_ctu1_0p_ctd1_1p_ctj1_0p_cQu1_0p_cQd1_0p'> +6.1139206e+01 </wgt>
<wgt id='ctGRe_0p_cQj18_0p_cQj38_0p_cQj11_0p_cjj31_0p_ctu8_0p_ctd8_0p_ctj8_0p_cQu8_1p_cQd8_0p_ctu1_0p_ctd1_0p_ctj1_1p_cQu1_0p_cQd1_0p'> +6.1139206e+01 </wgt>
<wgt id='ctGRe_0p_cQj18_0p_cQj38_0p_cQj11_0p_cjj31_0p_ctu8_0p_ctd8_0p_ctj8_0p_cQu8_1p_cQd8_0p_ctu1_0p_ctd1_0p_ctj1_0p_cQu1_1p_cQd1_0p'> +6.1139206e+01 </wgt>
<wgt id='ctGRe_0p_cQj18_0p_cQj38_0p_cQj11_0p_cjj31_0p_ctu8_0p_ctd8_0p_ctj8_0p_cQu8_1p_cQd8_0p_ctu1_0p_ctd1_0p_ctj1_0p_cQu1_0p_cQd1_1p'> +6.1139206e+01 </wgt>
<wgt id='ctGRe_0p_cQj18_0p_cQj38_0p_cQj11_0p_cjj31_0p_ctu8_0p_ctd8_0p_ctj8_0p_cQu8_0p_cQd8_2p_ctu1_0p_ctd1_0p_ctj1_0p_cQu1_0p_cQd1_0p'> +6.1139206e+01 </wgt>
<wgt id='ctGRe_0p_cQj18_0p_cQj38_0p_cQj11_0p_cjj31_0p_ctu8_0p_ctd8_0p_ctj8_0p_cQu8_0p_cQd8_1p_ctu1_1p_ctd1_0p_ctj1_0p_cQu1_0p_cQd1_0p'> +6.1139206e+01 </wgt>
<wgt id='ctGRe_0p_cQj18_0p_cQj38_0p_cQj11_0p_cjj31_0p_ctu8_0p_ctd8_0p_ctj8_0p_cQu8_0p_cQd8_1p_ctu1_0p_ctd1_1p_ctj1_0p_cQu1_0p_cQd1_0p'> +6.1139206e+01 </wgt>
<wgt id='ctGRe_0p_cQj18_0p_cQj38_0p_cQj11_0p_cjj31_0p_ctu8_0p_ctd8_0p_ctj8_0p_cQu8_0p_cQd8_1p_ctu1_0p_ctd1_0p_ctj1_1p_cQu1_0p_cQd1_0p'> +6.1139206e+01 </wgt>
<wgt id='ctGRe_0p_cQj18_0p_cQj38_0p_cQj11_0p_cjj31_0p_ctu8_0p_ctd8_0p_ctj8_0p_cQu8_0p_cQd8_1p_ctu1_0p_ctd1_0p_ctj1_0p_cQu1_1p_cQd1_0p'> +6.1139206e+01 </wgt>
<wgt id='ctGRe_0p_cQj18_0p_cQj38_0p_cQj11_0p_cjj31_0p_ctu8_0p_ctd8_0p_ctj8_0p_cQu8_0p_cQd8_1p_ctu1_0p_ctd1_0p_ctj1_0p_cQu1_0p_cQd1_1p'> +6.1139206e+01 </wgt>
<wgt id='ctGRe_0p_cQj18_0p_cQj38_0p_cQj11_0p_cjj31_0p_ctu8_0p_ctd8_0p_ctj8_0p_cQu8_0p_cQd8_0p_ctu1_2p_ctd1_0p_ctj1_0p_cQu1_0p_cQd1_0p'> +6.1139206e+01 </wgt>
<wgt id='ctGRe_0p_cQj18_0p_cQj38_0p_cQj11_0p_cjj31_0p_ctu8_0p_ctd8_0p_ctj8_0p_cQu8_0p_cQd8_0p_ctu1_1p_ctd1_1p_ctj1_0p_cQu1_0p_cQd1_0p'> +6.1139206e+01 </wgt>
<wgt id='ctGRe_0p_cQj18_0p_cQj38_0p_cQj11_0p_cjj31_0p_ctu8_0p_ctd8_0p_ctj8_0p_cQu8_0p_cQd8_0p_ctu1_1p_ctd1_0p_ctj1_1p_cQu1_0p_cQd1_0p'> +6.1139206e+01 </wgt>
<wgt id='ctGRe_0p_cQj18_0p_cQj38_0p_cQj11_0p_cjj31_0p_ctu8_0p_ctd8_0p_ctj8_0p_cQu8_0p_cQd8_0p_ctu1_1p_ctd1_0p_ctj1_0p_cQu1_1p_cQd1_0p'> +6.1139206e+01 </wgt>
<wgt id='ctGRe_0p_cQj18_0p_cQj38_0p_cQj11_0p_cjj31_0p_ctu8_0p_ctd8_0p_ctj8_0p_cQu8_0p_cQd8_0p_ctu1_1p_ctd1_0p_ctj1_0p_cQu1_0p_cQd1_1p'> +6.1139206e+01 </wgt>
<wgt id='ctGRe_0p_cQj18_0p_cQj38_0p_cQj11_0p_cjj31_0p_ctu8_0p_ctd8_0p_ctj8_0p_cQu8_0p_cQd8_0p_ctu1_0p_ctd1_2p_ctj1_0p_cQu1_0p_cQd1_0p'> +6.1139206e+01 </wgt>
<wgt id='ctGRe_0p_cQj18_0p_cQj38_0p_cQj11_0p_cjj31_0p_ctu8_0p_ctd8_0p_ctj8_0p_cQu8_0p_cQd8_0p_ctu1_0p_ctd1_1p_ctj1_1p_cQu1_0p_cQd1_0p'> +6.1139206e+01 </wgt>
<wgt id='ctGRe_0p_cQj18_0p_cQj38_0p_cQj11_0p_cjj31_0p_ctu8_0p_ctd8_0p_ctj8_0p_cQu8_0p_cQd8_0p_ctu1_0p_ctd1_1p_ctj1_0p_cQu1_1p_cQd1_0p'> +6.1139206e+01 </wgt>
<wgt id='ctGRe_0p_cQj18_0p_cQj38_0p_cQj11_0p_cjj31_0p_ctu8_0p_ctd8_0p_ctj8_0p_cQu8_0p_cQd8_0p_ctu1_0p_ctd1_1p_ctj1_0p_cQu1_0p_cQd1_1p'> +6.1139206e+01 </wgt>
<wgt id='ctGRe_0p_cQj18_0p_cQj38_0p_cQj11_0p_cjj31_0p_ctu8_0p_ctd8_0p_ctj8_0p_cQu8_0p_cQd8_0p_ctu1_0p_ctd1_0p_ctj1_2p_cQu1_0p_cQd1_0p'> +6.1139206e+01 </wgt>
<wgt id='ctGRe_0p_cQj18_0p_cQj38_0p_cQj11_0p_cjj31_0p_ctu8_0p_ctd8_0p_ctj8_0p_cQu8_0p_cQd8_0p_ctu1_0p_ctd1_0p_ctj1_1p_cQu1_1p_cQd1_0p'> +6.1139206e+01 </wgt>
<wgt id='ctGRe_0p_cQj18_0p_cQj38_0p_cQj11_0p_cjj31_0p_ctu8_0p_ctd8_0p_ctj8_0p_cQu8_0p_cQd8_0p_ctu1_0p_ctd1_0p_ctj1_1p_cQu1_0p_cQd1_1p'> +6.1139206e+01 </wgt>
<wgt id='ctGRe_0p_cQj18_0p_cQj38_0p_cQj11_0p_cjj31_0p_ctu8_0p_ctd8_0p_ctj8_0p_cQu8_0p_cQd8_0p_ctu1_0p_ctd1_0p_ctj1_0p_cQu1_2p_cQd1_0p'> +6.1139206e+01 </wgt>
<wgt id='ctGRe_0p_cQj18_0p_cQj38_0p_cQj11_0p_cjj31_0p_ctu8_0p_ctd8_0p_ctj8_0p_cQu8_0p_cQd8_0p_ctu1_0p_ctd1_0p_ctj1_0p_cQu1_1p_cQd1_1p'> +6.1139206e+01 </wgt>
<wgt id='ctGRe_0p_cQj18_0p_cQj38_0p_cQj11_0p_cjj31_0p_ctu8_0p_ctd8_0p_ctj8_0p_cQu8_0p_cQd8_0p_ctu1_0p_ctd1_0p_ctj1_0p_cQu1_0p_cQd1_2p'> +6.1139206e+01 </wgt>
<wgt id='1001'> +6.1139206e+01 </wgt>
<wgt id='1002'> +5.2577732e+01 </wgt>
<wgt id='1003'> +5.2561566e+01 </wgt>
<wgt id='1004'> +6.7206611e+01 </wgt>
<wgt id='1005'> +4.4487470e+01 </wgt>
<wgt id='1006'> +5.1382203e+01 </wgt>
<wgt id='1007'> +4.4598212e+01 </wgt>
<wgt id='1008'> +4.4585307e+01 </wgt>
<wgt id='1009'> +5.6135564e+01 </wgt>
<wgt id='1010'> +3.8097272e+01 </wgt>
<wgt id='1011'> +7.4021684e+01 </wgt>
<wgt id='1012'> +6.2948493e+01 </wgt>
<wgt id='1013'> +6.2927750e+01 </wgt>
<wgt id='1014'> +8.1979037e+01 </wgt>
<wgt id='1015'> +5.2660408e+01 </wgt>
<wgt id='1016'> +5.7251269e+01 </wgt>
<wgt id='1017'> +4.9239525e+01 </wgt>
<wgt id='1018'> +4.9224414e+01 </wgt>
<wgt id='1019'> +6.2927750e+01 </wgt>
<wgt id='1020'> +4.1693656e+01 </wgt>
<wgt id='1021'> +4.8114729e+01 </wgt>
<wgt id='1022'> +4.1766632e+01 </wgt>
<wgt id='1023'> +4.1754571e+01 </wgt>
<wgt id='1024'> +5.2561566e+01 </wgt>
<wgt id='1025'> +3.5704762e+01 </wgt>
<wgt id='1026'> +6.9314530e+01 </wgt>
<wgt id='1027'> +5.8951837e+01 </wgt>
<wgt id='1028'> +5.8932445e+01 </wgt>
<wgt id='1029'> +7.6759655e+01 </wgt>
<wgt id='1030'> +4.9353333e+01 </wgt>
<wgt id='1031'> +6.5267335e+01 </wgt>
<wgt id='1032'> +5.6152823e+01 </wgt>
<wgt id='1033'> +5.6135564e+01 </wgt>
<wgt id='1034'> +7.1691793e+01 </wgt>
<wgt id='1035'> +4.7506453e+01 </wgt>
<wgt id='1036'> +5.4851538e+01 </wgt>
<wgt id='1037'> +4.7630726e+01 </wgt>
<wgt id='1038'> +4.7616949e+01 </wgt>
<wgt id='1039'> +5.9881895e+01 </wgt>
<wgt id='1040'> +4.0682607e+01 </wgt>
<wgt id='1041'> +7.9019641e+01 </wgt>
<wgt id='1042'> +6.7228757e+01 </wgt>
<wgt id='1043'> +6.7206611e+01 </wgt>
<wgt id='1044'> +8.7450090e+01 </wgt>
<wgt id='1045'> +5.6234018e+01 </wgt>
<wgt id='1046'> +7.4566467e+01 </wgt>
<wgt id='1047'> +5.1807389e+01 </wgt>
<wgt id='1048'> +6.1139206e+01 </wgt>
<wgt id='1049'> +6.1017391e+01 </wgt>
<wgt id='1050'> +6.1041153e+01 </wgt>
<wgt id='1051'> +6.1283178e+01 </wgt>
<wgt id='1052'> +6.1205136e+01 </wgt>
<wgt id='1053'> +6.1061017e+01 </wgt>
<wgt id='1054'> +6.1204954e+01 </wgt>
<wgt id='1055'> +6.1053286e+01 </wgt>
<wgt id='1056'> +6.1148483e+01 </wgt>
<wgt id='1057'> +6.1029466e+01 </wgt>
<wgt id='1058'> +6.1065932e+01 </wgt>
<wgt id='1059'> +6.1239071e+01 </wgt>
<wgt id='1060'> +6.1052896e+01 </wgt>
<wgt id='1061'> +6.1245079e+01 </wgt>
<wgt id='1062'> +6.1280655e+01 </wgt>
<wgt id='1063'> +6.1288341e+01 </wgt>
<wgt id='1064'> +6.1249142e+01 </wgt>
<wgt id='1065'> +6.1382969e+01 </wgt>
<wgt id='1066'> +6.1077389e+01 </wgt>
<wgt id='1067'> +6.0752802e+01 </wgt>
<wgt id='1068'> +6.1315953e+01 </wgt>
<wgt id='1069'> +6.0903902e+01 </wgt>
<wgt id='1070'> +6.1377468e+01 </wgt>
<wgt id='1071'> +6.1353374e+01 </wgt>
<wgt id='1072'> +6.1016054e+01 </wgt>
<wgt id='1073'> +6.0935134e+01 </wgt>
<wgt id='1074'> +6.1008057e+01 </wgt>
<wgt id='1075'> +6.0893634e+01 </wgt>
<wgt id='1076'> +6.1148025e+01 </wgt>
<wgt id='1077'> +6.0737734e+01 </wgt>
<wgt id='1078'> +6.1232464e+01 </wgt>
<wgt id='1079'> +6.0916930e+01 </wgt>
<wgt id='1080'> +6.1329693e+01 </wgt>
<wgt id='1081'> +6.1014134e+01 </wgt>
<wgt id='1082'> +6.1007109e+01 </wgt>
<wgt id='1083'> +6.1092309e+01 </wgt>
<wgt id='1084'> +6.1278934e+01 </wgt>
<wgt id='1085'> +6.1141164e+01 </wgt>
<wgt id='1086'> +6.1079541e+01 </wgt>
<wgt id='1087'> +6.1127819e+01 </wgt>
<wgt id='1088'> +6.1140695e+01 </wgt>
<wgt id='1089'> +6.1109970e+01 </wgt>
<wgt id='1090'> +6.1243670e+01 </wgt>
<wgt id='1091'> +6.1060916e+01 </wgt>
<wgt id='1092'> +6.1204118e+01 </wgt>
<wgt id='1093'> +6.1071037e+01 </wgt>
<wgt id='1094'> +6.1140047e+01 </wgt>
<wgt id='1095'> +6.1143509e+01 </wgt>
<wgt id='1096'> +6.1105844e+01 </wgt>
<wgt id='1097'> +6.1084110e+01 </wgt>
<wgt id='1098'> +6.1121418e+01 </wgt>
<wgt id='1099'> +6.1115536e+01 </wgt>
<wgt id='1100'> +6.1176281e+01 </wgt>
<wgt id='1101'> +6.1123492e+01 </wgt>
<wgt id='1102'> +6.1139446e+01 </wgt>
<wgt id='1103'> +6.1178376e+01 </wgt>
<wgt id='1104'> +6.1078321e+01 </wgt>
<wgt id='1105'> +6.1160351e+01 </wgt>
<wgt id='1106'> +6.1139952e+01 </wgt>
<wgt id='1107'> +6.1109880e+01 </wgt>
<wgt id='1108'> +6.1146076e+01 </wgt>
<wgt id='1109'> +6.1115859e+01 </wgt>
<wgt id='1110'> +6.1188727e+01 </wgt>
<wgt id='1111'> +6.1158296e+01 </wgt>
<wgt id='1112'> +6.1153943e+01 </wgt>
<wgt id='1113'> +6.1201019e+01 </wgt>
<wgt id='1114'> +6.1131489e+01 </wgt>
<wgt id='1115'> +6.1152523e+01 </wgt>
<wgt id='1116'> +6.1153492e+01 </wgt>
<wgt id='1117'> +6.1135377e+01 </wgt>
<wgt id='1118'> +6.1144461e+01 </wgt>
<wgt id='1119'> +6.1138666e+01 </wgt>
<wgt id='1120'> +6.1132244e+01 </wgt>
<wgt id='1121'> +6.1154273e+01 </wgt>
<wgt id='1122'> +6.1121707e+01 </wgt>
<wgt id='1123'> +6.1123674e+01 </wgt>
<wgt id='1124'> +6.1123624e+01 </wgt>
<wgt id='1125'> +6.1178478e+01 </wgt>
<wgt id='1126'> +6.1146105e+01 </wgt>
<wgt id='1127'> +6.1126379e+01 </wgt>
<wgt id='1128'> +6.1152790e+01 </wgt>
<wgt id='1129'> +6.1133076e+01 </wgt>
<wgt id='1130'> +6.1145318e+01 </wgt>
<wgt id='1131'> +6.1160918e+01 </wgt>
<wgt id='1132'> +6.1141085e+01 </wgt>
<wgt id='1133'> +6.1140684e+01 </wgt>
<wgt id='1134'> +6.1125877e+01 </wgt>
<wgt id='1135'> +6.1152066e+01 </wgt>
<wgt id='1136'> +6.1132994e+01 </wgt>
<wgt id='1137'> +6.1126066e+01 </wgt>
<wgt id='1138'> +6.1151469e+01 </wgt>
<wgt id='1139'> +6.1140297e+01 </wgt>
<wgt id='1140'> +6.1153363e+01 </wgt>
<wgt id='1141'> +6.1128125e+01 </wgt>
<wgt id='1142'> +6.1142686e+01 </wgt>
<wgt id='1143'> +6.1153225e+01 </wgt>
<wgt id='1144'> +6.1131441e+01 </wgt>
<wgt id='1145'> +6.1149481e+01 </wgt>
<wgt id='1146'> +6.1134991e+01 </wgt>
<wgt id='1147'> +6.1149262e+01 </wgt>
<wgt id='1148'> +6.1139206e+01 </wgt>
<wgt id='1149'> +5.8277506e+01 </wgt>
<wgt id='1150'> +6.4380772e+01 </wgt>
<wgt id='1151'> +6.1139206e+01 </wgt>
<wgt id='1152'> +6.1591175e+01 </wgt>
<wgt id='1153'> +5.9735085e+01 </wgt>
<wgt id='1154'> +5.7373074e+01 </wgt>
<wgt id='1155'> +6.2011324e+01 </wgt>
<wgt id='1156'> +6.1466153e+01 </wgt>
<wgt id='1157'> +6.2678477e+01 </wgt>
<wgt id='1158'> +6.1003981e+01 </wgt>
<wgt id='1159'> +6.0962012e+01 </wgt>
<wgt id='1160'> +6.0614898e+01 </wgt>
<wgt id='1161'> +6.2306124e+01 </wgt>
<wgt id='1162'> +6.0388363e+01 </wgt>
<wgt id='1163'> +6.2451195e+01 </wgt>
<wgt id='1164'> +6.0742539e+01 </wgt>
<wgt id='1165'> +6.1497629e+01 </wgt>
<wgt id='1166'> +6.0077538e+01 </wgt>
<wgt id='1167'> +6.1065086e+01 </wgt>
<wgt id='1168'> +6.2448822e+01 </wgt>
<wgt id='1169'> +6.1412795e+01 </wgt>
<wgt id='1170'> +5.9663317e+01 </wgt>
<wgt id='1171'> +6.0187309e+01 </wgt>
<wgt id='1172'> +6.0124392e+01 </wgt>
<wgt id='1173'> +5.9274085e+01 </wgt>
<wgt id='1174'> +5.9952458e+01 </wgt>
<wgt id='1175'> +6.1421829e+01 </wgt>
<wgt id='1176'> +6.0566353e+01 </wgt>
<wgt id='1177'> +6.0320577e+01 </wgt>
<wgt id='1178'> +5.9459421e+01 </wgt>
<wgt id='1179'> +6.0485854e+01 </wgt>
<wgt id='1180'> +6.2016449e+01 </wgt>
<wgt id='1181'> +6.1756043e+01 </wgt>
<wgt id='1182'> +6.1200838e+01 </wgt>
<wgt id='1183'> +6.2759499e+01 </wgt>
<wgt id='1184'> +6.0819407e+01 </wgt>
<wgt id='1185'> +6.2918502e+01 </wgt>
<wgt id='1186'> +6.0325425e+01 </wgt>
<wgt id='1187'> +6.0872519e+01 </wgt>
<wgt id='1188'> +5.9664398e+01 </wgt>
<wgt id='1189'> +6.1021530e+01 </wgt>
<wgt id='1190'> +6.1182086e+01 </wgt>
<wgt id='1191'> +6.1708227e+01 </wgt>
<wgt id='1192'> +6.1530497e+01 </wgt>
<wgt id='1193'> +6.2624636e+01 </wgt>
<wgt id='1194'> +6.1855488e+01 </wgt>
<wgt id='1195'> +6.2247193e+01 </wgt>
<wgt id='1196'> +6.1588938e+01 </wgt>
<wgt id='1197'> +6.1754968e+01 </wgt>
<wgt id='1198'> +6.0641270e+01 </wgt>
<wgt id='1199'> +6.1465658e+01 </wgt>
<wgt id='1200'> +5.9724589e+01 </wgt>
<wgt id='1201'> +6.0544560e+01 </wgt>
<wgt id='1202'> +6.1165712e+01 </wgt>
<wgt id='1203'> +6.0225700e+01 </wgt>
<wgt id='1204'> +6.0803760e+01 </wgt>
<wgt id='1205'> +6.0482705e+01 </wgt>
<wgt id='1206'> +6.1349347e+01 </wgt>
<wgt id='1207'> +6.1435614e+01 </wgt>
<wgt id='1208'> +6.0477381e+01 </wgt>
<wgt id='1209'> +6.0932646e+01 </wgt>
<wgt id='1210'> +6.1347192e+01 </wgt>
<wgt id='1211'> +6.0985599e+01 </wgt>
<wgt id='1212'> +6.0664825e+01 </wgt>
<wgt id='1213'> +6.0944508e+01 </wgt>
<wgt id='1214'> +6.0403360e+01 </wgt>
<wgt id='1215'> +6.1857158e+01 </wgt>
<wgt id='1216'> +6.0645090e+01 </wgt>
<wgt id='1217'> +6.2143058e+01 </wgt>
<wgt id='1218'> +6.0536073e+01 </wgt>
<wgt id='1219'> +6.1020213e+01 </wgt>
<wgt id='1220'> +6.1877284e+01 </wgt>
<wgt id='1221'> +6.1414681e+01 </wgt>
<wgt id='1222'> +6.0628576e+01 </wgt>
<wgt id='1223'> +5.8491271e+01 </wgt>
<wgt id='1224'> +6.1734510e+01 </wgt>
<wgt id='1225'> +6.0324825e+01 </wgt>
<wgt id='1226'> +6.2113198e+01 </wgt>
<wgt id='1227'> +6.1905606e+01 </wgt>
<wgt id='1228'> +6.1439758e+01 </wgt>
<wgt id='1229'> +5.9767045e+01 </wgt>
<wgt id='1230'> +6.0784203e+01 </wgt>
<wgt id='1231'> +6.2701647e+01 </wgt>
<wgt id='1232'> +6.1381363e+01 </wgt>
<wgt id='1233'> +6.1065086e+01 </wgt>
<wgt id='1234'> +6.1917405e+01 </wgt>
<wgt id='1235'> +6.0995664e+01 </wgt>
<wgt id='1236'> +5.8770411e+01 </wgt>
<wgt id='1237'> +6.2048859e+01 </wgt>
<wgt id='1238'> +6.0984077e+01 </wgt>
<wgt id='1239'> +6.3073939e+01 </wgt>
<wgt id='1240'> +6.3610361e+01 </wgt>
<wgt id='1241'> +6.3099337e+01 </wgt>
<wgt id='1242'> +6.1565009e+01 </wgt>
<wgt id='1243'> +6.1855549e+01 </wgt>
<wgt id='1244'> +6.1321164e+01 </wgt>
<wgt id='1245'> +6.1822427e+01 </wgt>
<wgt id='1246'> +6.2576624e+01 </wgt>
<wgt id='1247'> +6.0400940e+01 </wgt>
<wgt id='1248'> +6.2287166e+01 </wgt>
<wgt id='1249'> +6.2224538e+01 </wgt>
<wgt id='1250'> +6.0468163e+01 </wgt>
<wgt id='1251'> +6.0748975e+01 </wgt>
<wgt id='1252'> +6.1277818e+01 </wgt>
<wgt id='1253'> +6.1250381e+01 </wgt>
<wgt id='1254'> +6.1309661e+01 </wgt>
<wgt id='1255'> +6.1272725e+01 </wgt>
<wgt id='1256'> +6.1467339e+01 </wgt>
<wgt id='1257'> +6.1276449e+01 </wgt>
<wgt id='1258'> +6.1160204e+01 </wgt>
<wgt id='1259'> +6.1283648e+01 </wgt>
<wgt id='1260'> +6.1188167e+01 </wgt>
<wgt id='1261'> +6.1343622e+01 </wgt>
<wgt id='1262'> +6.1246120e+01 </wgt>
<wgt id='1263'> +6.1051049e+01 </wgt>
<wgt id='1264'> +6.1138228e+01 </wgt>
<wgt id='1265'> +6.0983464e+01 </wgt>
<wgt id='1266'> +6.1163292e+01 </wgt>
<wgt id='1267'> +6.1221237e+01 </wgt>
<wgt id='1268'> +6.1381414e+01 </wgt>
<wgt id='1269'> +6.1215964e+01 </wgt>
<wgt id='1270'> +6.1103275e+01 </wgt>
<wgt id='1271'> +6.1308968e+01 </wgt>
<wgt id='1272'> +6.1122282e+01 </wgt>
<wgt id='1273'> +6.1364930e+01 </wgt>
<wgt id='1274'> +6.1101590e+01 </wgt>
<wgt id='1275'> +6.1314330e+01 </wgt>
<wgt id='1276'> +6.1078823e+01 </wgt>
<wgt id='1277'> +6.1146414e+01 </wgt>
<wgt id='1278'> +6.1394105e+01 </wgt>
<wgt id='1279'> +6.1167059e+01 </wgt>
<wgt id='1280'> +6.1170575e+01 </wgt>
<wgt id='1281'> +6.1793457e+01 </wgt>
<wgt id='1282'> +6.1283475e+01 </wgt>
<wgt id='1283'> +6.1323065e+01 </wgt>
<wgt id='1284'> +6.1250039e+01 </wgt>
<wgt id='1285'> +6.1305095e+01 </wgt>
<wgt id='1286'> +6.1590243e+01 </wgt>
<wgt id='1287'> +6.1229358e+01 </wgt>
<wgt id='1288'> +6.1224190e+01 </wgt>
<wgt id='1289'> +6.1512835e+01 </wgt>
<wgt id='1290'> +6.1189388e+01 </wgt>
<wgt id='1291'> +6.0954786e+01 </wgt>
<wgt id='1292'> +6.1127062e+01 </wgt>
<wgt id='1293'> +6.1180551e+01 </wgt>
<wgt id='1294'> +6.1302927e+01 </wgt>
<wgt id='1295'> +6.1166024e+01 </wgt>
<wgt id='1296'> +6.1390993e+01 </wgt>
<wgt id='1297'> +6.1197135e+01 </wgt>
<wgt id='1298'> +6.1439474e+01 </wgt>
<wgt id='1299'> +6.1392102e+01 </wgt>
<wgt id='1300'> +6.1175550e+01 </wgt>
<wgt id='1301'> +6.1212956e+01 </wgt>
<wgt id='1302'> +6.1364086e+01 </wgt>
<wgt id='1303'> +6.1380602e+01 </wgt>
<wgt id='1304'> +6.1282484e+01 </wgt>
<wgt id='1305'> +6.1352716e+01 </wgt>
<wgt id='1306'> +6.1363974e+01 </wgt>
<wgt id='1307'> +6.1266654e+01 </wgt>
<wgt id='1308'> +6.1277270e+01 </wgt>
<wgt id='1309'> +6.1335479e+01 </wgt>
<wgt id='1310'> +6.1269717e+01 </wgt>
<wgt id='1311'> +6.1225300e+01 </wgt>
<wgt id='1312'> +6.1242719e+01 </wgt>
<wgt id='1313'> +6.1286027e+01 </wgt>
<wgt id='1314'> +6.1375663e+01 </wgt>
<wgt id='1315'> +6.1225676e+01 </wgt>
<wgt id='1316'> +6.1298745e+01 </wgt>
<wgt id='1317'> +6.1364370e+01 </wgt>
<wgt id='1318'> +6.1298404e+01 </wgt>
<wgt id='1319'> +6.1291934e+01 </wgt>
<wgt id='1320'> +6.1295360e+01 </wgt>
<wgt id='1321'> +6.1245460e+01 </wgt>
<wgt id='1322'> +6.1216867e+01 </wgt>
<wgt id='1323'> +6.1212236e+01 </wgt>
<wgt id='1324'> +6.1281555e+01 </wgt>
<wgt id='1325'> +6.1282565e+01 </wgt>
<wgt id='1326'> +6.1175165e+01 </wgt>
<wgt id='1327'> +6.1315826e+01 </wgt>
<wgt id='1328'> +6.1229847e+01 </wgt>
<wgt id='1329'> +6.1283438e+01 </wgt>
<wgt id='1330'> +6.1289237e+01 </wgt>
<wgt id='1331'> +6.1306378e+01 </wgt>
<wgt id='1332'> +6.1266756e+01 </wgt>
<wgt id='1333'> +6.1276680e+01 </wgt>
<wgt id='1334'> +6.1273608e+01 </wgt>
<wgt id='1335'> +6.1301254e+01 </wgt>
<wgt id='1336'> +6.1272636e+01 </wgt>
<wgt id='1337'> +6.1265708e+01 </wgt>
<wgt id='1338'> +6.1284068e+01 </wgt>
<wgt id='1339'> +6.1284848e+01 </wgt>
<wgt id='1340'> +6.1295034e+01 </wgt>
<wgt id='1341'> +6.1288338e+01 </wgt>
<wgt id='1342'> +6.1304534e+01 </wgt>
<wgt id='1343'> +6.1271287e+01 </wgt>
<wgt id='1344'> +6.1301219e+01 </wgt>
<wgt id='1345'> +6.1271036e+01 </wgt>
<wgt id='1346'> +6.1286159e+01 </wgt>
<wgt id='1347'> +6.1271167e+01 </wgt>
<wgt id='1348'> +6.1265774e+01 </wgt>
<wgt id='1349'> +6.1308027e+01 </wgt>
<wgt id='1350'> +6.1247441e+01 </wgt>
<wgt id='1351'> +6.1306750e+01 </wgt>
<wgt id='1352'> +6.1266780e+01 </wgt>
<wgt id='1353'> +5.8277506e+01 </wgt>
<wgt id='1354'> +6.4380772e+01 </wgt>
<wgt id='1355'> +4.7902952e+01 </wgt>
<wgt id='1356'> +5.0516641e+01 </wgt>
<wgt id='1357'> +5.2919582e+01 </wgt>
<wgt id='1358'> +5.5295618e+01 </wgt>
<wgt id='1359'> +5.9795413e+01 </wgt>
<wgt id='1360'> +6.2717815e+01 </wgt>
<wgt id='1361'> +6.7346623e+01 </wgt>
<wgt id='1362'> +7.0463414e+01 </wgt>
<wgt id='1363'> +6.1996044e+01 </wgt>
<wgt id='1364'> +6.2030497e+01 </wgt>
<wgt id='1365'> +6.1932625e+01 </wgt>
<wgt id='1366'> +6.1913144e+01 </wgt>
<wgt id='1367'> +6.2199509e+01 </wgt>
<wgt id='1368'> +6.1906344e+01 </wgt>
<wgt id='1369'> +6.1903608e+01 </wgt>
<wgt id='1370'> +6.2004210e+01 </wgt>
<wgt id='1371'> +6.2024542e+01 </wgt>
<wgt id='1372'> +6.2130250e+01 </wgt>
<wgt id='1373'> +6.1982036e+01 </wgt>
<wgt id='1374'> +6.1869553e+01 </wgt>
<wgt id='1375'> +6.1896493e+01 </wgt>
<wgt id='1376'> +6.2170022e+01 </wgt>
<wgt id='1377'> +6.1897172e+01 </wgt>
<wgt id='1378'> +6.1910630e+01 </wgt>
<wgt id='1379'> +6.1978274e+01 </wgt>
<wgt id='1380'> +6.1837202e+01 </wgt>
<wgt id='1381'> +6.1972894e+01 </wgt>
<wgt id='1382'> +6.2260773e+01 </wgt>
<wgt id='1383'> +6.2177529e+01 </wgt>
<wgt id='1384'> +6.2264251e+01 </wgt>
<wgt id='1385'> +6.2010946e+01 </wgt>
<wgt id='1386'> +6.2116213e+01 </wgt>
<wgt id='1387'> +6.2115441e+01 </wgt>
<wgt id='1388'> +6.2126170e+01 </wgt>
<wgt id='1389'> +6.1825855e+01 </wgt>
<wgt id='1390'> +6.2031453e+01 </wgt>
<wgt id='1391'> +6.1985585e+01 </wgt>
<wgt id='1392'> +6.1738155e+01 </wgt>
<wgt id='1393'> +6.2564507e+01 </wgt>
<wgt id='1394'> +6.2291335e+01 </wgt>
<wgt id='1395'> +6.1968459e+01 </wgt>
<wgt id='1396'> +6.2196851e+01 </wgt>
<wgt id='1397'> +6.1956596e+01 </wgt>
<wgt id='1398'> +6.2575344e+01 </wgt>
<wgt id='1399'> +6.2138161e+01 </wgt>
<wgt id='1400'> +6.1830438e+01 </wgt>
<wgt id='1401'> +6.2016182e+01 </wgt>
<wgt id='1402'> +6.2173008e+01 </wgt>
<wgt id='1403'> +6.1688841e+01 </wgt>
<wgt id='1404'> +6.1991449e+01 </wgt>
<wgt id='1405'> +6.1983165e+01 </wgt>
<wgt id='1406'> +6.1875211e+01 </wgt>
<wgt id='1407'> +6.2077127e+01 </wgt>
<wgt id='1408'> +6.2052148e+01 </wgt>
<wgt id='1409'> +6.2106931e+01 </wgt>
<wgt id='1410'> +6.2018244e+01 </wgt>
<wgt id='1411'> +6.1892804e+01 </wgt>
<wgt id='1412'> +6.1952076e+01 </wgt>
<wgt id='1413'> +6.1851623e+01 </wgt>
<wgt id='1414'> +6.2102854e+01 </wgt>
<wgt id='1415'> +6.1949086e+01 </wgt>
<wgt id='1416'> +6.2055523e+01 </wgt>
<wgt id='1417'> +6.2050851e+01 </wgt>
<wgt id='1418'> +6.1902698e+01 </wgt>
<wgt id='1419'> +6.2049699e+01 </wgt>
<wgt id='1420'> +6.2087627e+01 </wgt>
<wgt id='1421'> +6.1885084e+01 </wgt>
<wgt id='1422'> +6.2077240e+01 </wgt>
<wgt id='1423'> +6.2060391e+01 </wgt>
<wgt id='1424'> +6.2175082e+01 </wgt>
<wgt id='1425'> +6.2058673e+01 </wgt>
<wgt id='1426'> +6.1988763e+01 </wgt>
<wgt id='1427'> +6.1957702e+01 </wgt>
<wgt id='1428'> +6.1975816e+01 </wgt>
<wgt id='1429'> +6.2044568e+01 </wgt>
<wgt id='1430'> +6.1883337e+01 </wgt>
<wgt id='1431'> +6.2037243e+01 </wgt>
<wgt id='1432'> +6.1930187e+01 </wgt>
<wgt id='1433'> +6.1931176e+01 </wgt>
<wgt id='1434'> +6.1955956e+01 </wgt>
<wgt id='1435'> +6.2062930e+01 </wgt>
<wgt id='1436'> +6.2008306e+01 </wgt>
<wgt id='1437'> +6.1957981e+01 </wgt>
<wgt id='1438'> +6.2041411e+01 </wgt>
<wgt id='1439'> +6.1964622e+01 </wgt>
<wgt id='1440'> +6.1971666e+01 </wgt>
<wgt id='1441'> +6.2026736e+01 </wgt>
<wgt id='1442'> +6.2002392e+01 </wgt>
<wgt id='1443'> +6.1990505e+01 </wgt>
<wgt id='1444'> +6.1995656e+01 </wgt>
<wgt id='1445'> +6.2015357e+01 </wgt>
<wgt id='1446'> +6.1952094e+01 </wgt>
<wgt id='1447'> +6.1935998e+01 </wgt>
<wgt id='1448'> +6.2025661e+01 </wgt>
<wgt id='1449'> +6.2002530e+01 </wgt>
<wgt id='1450'> +6.1999405e+01 </wgt>
<wgt id='1451'> +6.1974389e+01 </wgt>
<wgt id='1452'> +6.1995366e+01 </wgt>
<wgt id='1453'> +6.2040945e+01 </wgt>
<wgt id='1454'> +6.2007091e+01 </wgt>
<wgt id='1455'> +6.1967339e+01 </wgt>
<wgt id='1456'> +6.1990223e+01 </wgt>
<wgt id='1457'> +6.2022129e+01 </wgt>
<wgt id='1458'> +6.1999295e+01 </wgt>
<wgt id='1459'> +6.1981224e+01 </wgt>
<wgt id='1460'> +6.1989427e+01 </wgt>
<wgt id='1461'> +6.1960091e+01 </wgt>
<wgt id='1462'> +6.2002134e+01 </wgt>
<wgt id='1463'> +6.2011708e+01 </wgt>
<wgt id='1464'> +5.9005996e+01 </wgt>
<wgt id='1465'> +6.4772383e+01 </wgt>
<wgt id='1466'> +6.1134655e+01 </wgt>
<wgt id='1467'> +6.1297332e+01 </wgt>
<wgt id='1468'> +6.1280690e+01 </wgt>
<wgt id='1469'> +6.1292803e+01 </wgt>
<wgt id='1470'> +6.0766222e+01 </wgt>
<wgt id='1471'> +6.0718366e+01 </wgt>
<wgt id='1472'> +5.8950158e+01 </wgt>
<wgt id='1473'> +6.0126703e+01 </wgt>
<wgt id='1474'> +6.1756895e+01 </wgt>
<wgt id='1475'> +6.0403301e+01 </wgt>
<wgt id='1476'> +6.1271999e+01 </wgt>
<wgt id='1477'> +6.1482881e+01 </wgt>
<wgt id='1478'> +6.0948226e+01 </wgt>
<wgt id='1479'> +6.2620611e+01 </wgt>
<wgt id='1480'> +6.1797015e+01 </wgt>
<wgt id='1481'> +6.0960164e+01 </wgt>
<wgt id='1482'> +6.1613055e+01 </wgt>
<wgt id='1483'> +5.9954603e+01 </wgt>
<wgt id='1484'> +6.2389517e+01 </wgt>
<wgt id='1485'> +6.1944693e+01 </wgt>
<wgt id='1486'> +6.0363748e+01 </wgt>
<wgt id='1487'> +6.0902266e+01 </wgt>
<wgt id='1488'> +6.1280682e+01 </wgt>
<wgt id='1489'> +6.0782863e+01 </wgt>
<wgt id='1490'> +6.1522779e+01 </wgt>
<wgt id='1491'> +6.1562403e+01 </wgt>
<wgt id='1492'> +6.0782971e+01 </wgt>
<wgt id='1493'> +6.1208539e+01 </wgt>
<wgt id='1494'> +6.1003746e+01 </wgt>
<wgt id='1495'> +6.1180586e+01 </wgt>
<wgt id='1496'> +6.1109247e+01 </wgt>
<wgt id='1497'> +6.0970130e+01 </wgt>
<wgt id='1498'> +6.1378645e+01 </wgt>
<wgt id='1499'> +6.1171839e+01 </wgt>
<wgt id='1500'> +6.1112033e+01 </wgt>
<wgt id='1501'> +6.1940866e+01 </wgt>
<wgt id='1502'> +6.0409927e+01 </wgt>
<wgt id='1503'> +5.9354621e+01 </wgt>
<wgt id='1504'> +6.3168734e+01 </wgt>
<wgt id='1505'> +6.2578022e+01 </wgt>
<wgt id='1506'> +6.0348404e+01 </wgt>
<wgt id='1507'> +6.1451787e+01 </wgt>
<wgt id='1508'> +6.1031763e+01 </wgt>
<wgt id='1509'> +6.1525955e+01 </wgt>
<wgt id='1510'> +6.1411326e+01 </wgt>
<wgt id='1511'> +6.0806365e+01 </wgt>
<wgt id='1512'> +5.9636880e+01 </wgt>
<wgt id='1513'> +6.0826416e+01 </wgt>
<wgt id='1514'> +6.0635606e+01 </wgt>
<wgt id='1515'> +6.1179715e+01 </wgt>
<wgt id='1516'> +6.1046721e+01 </wgt>
<wgt id='1517'> +6.1095910e+01 </wgt>
<wgt id='1518'> +6.1108837e+01 </wgt>
<wgt id='1519'> +5.8870238e+01 </wgt>
<wgt id='1520'> +5.9418028e+01 </wgt>
<wgt id='1521'> +6.0555298e+01 </wgt>
<wgt id='1522'> +6.2343221e+01 </wgt>
<wgt id='1523'> +5.8000735e+01 </wgt>
<wgt id='1524'> +6.4497995e+01 </wgt>
<wgt id='1525'> +5.9931123e+01 </wgt>
<wgt id='1526'> +5.9833266e+01 </wgt>
<wgt id='1527'> +5.9985308e+01 </wgt>
<wgt id='1528'> +5.8200205e+01 </wgt>
<wgt id='1529'> +5.9525270e+01 </wgt>
<wgt id='1530'> +5.9818087e+01 </wgt>
<wgt id='1531'> +6.0124869e+01 </wgt>
<wgt id='1532'> +5.9709578e+01 </wgt>
<wgt id='1533'> +5.9386737e+01 </wgt>
<wgt id='1534'> +6.0309702e+01 </wgt>
<wgt id='1535'> +5.9584262e+01 </wgt>
<wgt id='1536'> +6.0936071e+01 </wgt>
<wgt id='1537'> +5.9117974e+01 </wgt>
<wgt id='1538'> +6.0265136e+01 </wgt>
<wgt id='1539'> +5.9873175e+01 </wgt>
<wgt id='1540'> +6.1354507e+01 </wgt>
<wgt id='1541'> +5.8960977e+01 </wgt>
<wgt id='1542'> +5.8729902e+01 </wgt>
<wgt id='1543'> +6.1354402e+01 </wgt>
<wgt id='1544'> +6.0326463e+01 </wgt>
<wgt id='1545'> +5.9524806e+01 </wgt>
<wgt id='1546'> +6.0096405e+01 </wgt>
<wgt id='1547'> +5.9607772e+01 </wgt>
<wgt id='1548'> +5.9935050e+01 </wgt>
<wgt id='1549'> +5.9937273e+01 </wgt>
<wgt id='1550'> +6.1497107e+01 </wgt>
<wgt id='1551'> +5.8445670e+01 </wgt>
<wgt id='1552'> +6.0163557e+01 </wgt>
<wgt id='1553'> +5.9623653e+01 </wgt>
<wgt id='1554'> +6.0075991e+01 </wgt>
<wgt id='1555'> +5.9886771e+01 </wgt>
<wgt id='1556'> +6.0173213e+01 </wgt>
<wgt id='1557'> +5.9618163e+01 </wgt>
<wgt id='1558'> +5.9439310e+01 </wgt>
<wgt id='1559'> +6.1022466e+01 </wgt>
<wgt id='1560'> +5.8690565e+01 </wgt>
<wgt id='1561'> +6.1190447e+01 </wgt>
<wgt id='1562'> +5.9672416e+01 </wgt>
<wgt id='1563'> +6.0341889e+01 </wgt>
<wgt id='1564'> +5.9857955e+01 </wgt>
<wgt id='1565'> +6.0126632e+01 </wgt>
<wgt id='1566'> +5.9506828e+01 </wgt>
<wgt id='1567'> +6.0415170e+01 </wgt>
<wgt id='1568'> +5.9248166e+01 </wgt>
<wgt id='1569'> +6.1192947e+01 </wgt>
<wgt id='1570'> +6.0071788e+01 </wgt>
<wgt id='1571'> +6.0248695e+01 </wgt>
<wgt id='1572'> +6.0103461e+01 </wgt>
<wgt id='1573'> +5.8274771e+01 </wgt>
<wgt id='1574'> +5.8445011e+01 </wgt>
<wgt id='1575'> +6.0165456e+01 </wgt>
<wgt id='1576'> +6.0109551e+01 </wgt>
<wgt id='1577'> +6.0036156e+01 </wgt>
<wgt id='1578'> +5.7801238e+01 </wgt>
<wgt id='1579'> +6.0673847e+01 </wgt>
<wgt id='1580'> +5.9489772e+01 </wgt>
<wgt id='1581'> +6.0860226e+01 </wgt>
<wgt id='1582'> +5.7051921e+01 </wgt>
<wgt id='1583'> +6.3029730e+01 </wgt>
<wgt id='1584'> +5.6458045e+01 </wgt>
<wgt id='1585'> +6.1394920e+01 </wgt>
<wgt id='1586'> +6.1427134e+01 </wgt>
<wgt id='1587'> +6.1361779e+01 </wgt>
<wgt id='1588'> +6.1462952e+01 </wgt>
<wgt id='1589'> +6.1348278e+01 </wgt>
<wgt id='1590'> +6.1753732e+01 </wgt>
<wgt id='1591'> +6.1056690e+01 </wgt>
<wgt id='1592'> +6.1173068e+01 </wgt>
<wgt id='1593'> +6.1650917e+01 </wgt>
<wgt id='1594'> +6.1446309e+01 </wgt>
<wgt id='1595'> +6.1344141e+01 </wgt>
<wgt id='1596'> +6.1444650e+01 </wgt>
<wgt id='1597'> +6.1284549e+01 </wgt>
<wgt id='1598'> +6.1380069e+01 </wgt>
<wgt id='1599'> +6.1422823e+01 </wgt>
<wgt id='1600'> +6.1314373e+01 </wgt>
<wgt id='1601'> +6.1438728e+01 </wgt>
<wgt id='1602'> +6.1174506e+01 </wgt>
<wgt id='1603'> +6.1659415e+01 </wgt>
<wgt id='1604'> +6.1423042e+01 </wgt>
<wgt id='1605'> +6.1369875e+01 </wgt>
<wgt id='1606'> +6.1277993e+01 </wgt>
<wgt id='1607'> +6.1546793e+01 </wgt>
<wgt id='1608'> +6.1046702e+01 </wgt>
<wgt id='1609'> +6.1627743e+01 </wgt>
<wgt id='1610'> +6.1689907e+01 </wgt>
<wgt id='1611'> +6.1108579e+01 </wgt>
<wgt id='1612'> +6.1422636e+01 </wgt>
<wgt id='1613'> +6.1368341e+01 </wgt>
<wgt id='1614'> +6.1102846e+01 </wgt>
<wgt id='1615'> +6.1752889e+01 </wgt>
<wgt id='1616'> +6.0633280e+01 </wgt>
<wgt id='1617'> +6.2260048e+01 </wgt>
<wgt id='1618'> +6.1715914e+01 </wgt>
<wgt id='1619'> +6.1088684e+01 </wgt>
<wgt id='1620'> +6.1523346e+01 </wgt>
<wgt id='1621'> +6.1061233e+01 </wgt>
<wgt id='1622'> +6.1447566e+01 </wgt>
<wgt id='1623'> +6.1371437e+01 </wgt>
<wgt id='1624'> +6.1224200e+01 </wgt>
<wgt id='1625'> +6.1590800e+01 </wgt>
<wgt id='1626'> +6.0870336e+01 </wgt>
<wgt id='1627'> +6.1991620e+01 </wgt>
<wgt id='1628'> +6.1863024e+01 </wgt>
<wgt id='1629'> +6.1138221e+01 </wgt>
<wgt id='1630'> +6.1317455e+01 </wgt>
<wgt id='1631'> +6.1590341e+01 </wgt>
<wgt id='1632'> +6.2243774e+01 </wgt>
<wgt id='1633'> +6.0379010e+01 </wgt>
<wgt id='1634'> +6.1762466e+01 </wgt>
<wgt id='1635'> +6.1216712e+01 </wgt>
<wgt id='1636'> +6.0597949e+01 </wgt>
<wgt id='1637'> +6.0573858e+01 </wgt>
<wgt id='1638'> +6.0637431e+01 </wgt>
<wgt id='1639'> +6.0797681e+01 </wgt>
<wgt id='1640'> +6.0403636e+01 </wgt>
<wgt id='1641'> +6.0785977e+01 </wgt>
<wgt id='1642'> +6.0526888e+01 </wgt>
<wgt id='1643'> +6.0564210e+01 </wgt>
<wgt id='1644'> +6.0633004e+01 </wgt>
<wgt id='1645'> +6.0639716e+01 </wgt>
<wgt id='1646'> +6.0559295e+01 </wgt>
<wgt id='1647'> +6.0468123e+01 </wgt>
<wgt id='1648'> +6.0656289e+01 </wgt>
<wgt id='1649'> +6.0594826e+01 </wgt>
<wgt id='1650'> +6.0607535e+01 </wgt>
<wgt id='1651'> +6.0594384e+01 </wgt>
<wgt id='1652'> +6.0605833e+01 </wgt>
<wgt id='1653'> +6.0651372e+01 </wgt>
<wgt id='1654'> +6.0570601e+01 </wgt>
<wgt id='1655'> +6.0611256e+01 </wgt>
<wgt id='1656'> +6.0584791e+01 </wgt>
<wgt id='1657'> +6.0506023e+01 </wgt>
<wgt id='1658'> +6.0668438e+01 </wgt>
<wgt id='1659'> +6.1049439e+01 </wgt>
<wgt id='1660'> +6.0177520e+01 </wgt>
<wgt id='1661'> +6.0739888e+01 </wgt>
<wgt id='1662'> +6.0240674e+01 </wgt>
<wgt id='1663'> +6.0601720e+01 </wgt>
<wgt id='1664'> +6.0524399e+01 </wgt>
<wgt id='1665'> +6.0847551e+01 </wgt>
<wgt id='1666'> +6.0004246e+01 </wgt>
<wgt id='1667'> +6.0282614e+01 </wgt>
<wgt id='1668'> +6.1259777e+01 </wgt>
<wgt id='1669'> +6.0706991e+01 </wgt>
<wgt id='1670'> +6.0377855e+01 </wgt>
<wgt id='1671'> +6.0136333e+01 </wgt>
<wgt id='1672'> +6.0796541e+01 </wgt>
<wgt id='1673'> +6.0576523e+01 </wgt>
<wgt id='1674'> +6.0595739e+01 </wgt>
<wgt id='1675'> +6.0356001e+01 </wgt>
<wgt id='1676'> +6.0784190e+01 </wgt>
<wgt id='1677'> +6.0706503e+01 </wgt>
<wgt id='1678'> +6.0419684e+01 </wgt>
<wgt id='1679'> +6.0658710e+01 </wgt>
<wgt id='1680'> +6.0270850e+01 </wgt>
<wgt id='1681'> +5.9693374e+01 </wgt>
<wgt id='1682'> +6.1259334e+01 </wgt>
<wgt id='1683'> +6.1013737e+01 </wgt>
<wgt id='1684'> +6.0421323e+01 </wgt>
<wgt id='1685'> +6.0154058e+01 </wgt>
<wgt id='1686'> +6.0895920e+01 </wgt>
<wgt id='1687'> +8.2820267e+01 </wgt>
<wgt id='1688'> +6.0572392e+01 </wgt>
<wgt id='1689'> +6.0560982e+01 </wgt>
<wgt id='1690'> +6.0590215e+01 </wgt>
<wgt id='1691'> +6.0573029e+01 </wgt>
<wgt id='1692'> +6.0570962e+01 </wgt>
<wgt id='1693'> +6.0474043e+01 </wgt>
<wgt id='1694'> +6.0658637e+01 </wgt>
<wgt id='1695'> +6.0740466e+01 </wgt>
<wgt id='1696'> +6.0715837e+01 </wgt>
<wgt id='1697'> +6.0834643e+01 </wgt>
<wgt id='1698'> +6.0487331e+01 </wgt>
<wgt id='1699'> +6.0595512e+01 </wgt>
<wgt id='1700'> +6.0308922e+01 </wgt>
<wgt id='1701'> +6.0407288e+01 </wgt>
<wgt id='1702'> +6.0759349e+01 </wgt>
<wgt id='1703'> +6.0536395e+01 </wgt>
<wgt id='1704'> +6.0645250e+01 </wgt>
<wgt id='1705'> +6.0583586e+01 </wgt>
<wgt id='1706'> +6.0779676e+01 </wgt>
<wgt id='1707'> +6.0572514e+01 </wgt>
<wgt id='1708'> +6.0612220e+01 </wgt>
<wgt id='1709'> +6.0496262e+01 </wgt>
<wgt id='1710'> +6.0635903e+01 </wgt>
<wgt id='1711'> +6.0459814e+01 </wgt>
<wgt id='1712'> +6.0279517e+01 </wgt>
<wgt id='1713'> +6.0451592e+01 </wgt>
<wgt id='1714'> +6.0634141e+01 </wgt>
<wgt id='1715'> +6.0654143e+01 </wgt>
<wgt id='1716'> +6.0609660e+01 </wgt>
<wgt id='1717'> +6.0677104e+01 </wgt>
<wgt id='1718'> +6.1807542e+01 </wgt>
<wgt id='1719'> +6.1308826e+01 </wgt>
<wgt id='1720'> +6.2152700e+01 </wgt>
<wgt id='1721'> +6.1919090e+01 </wgt>
<wgt id='1722'> +6.1475833e+01 </wgt>
<wgt id='1723'> +6.1778876e+01 </wgt>
<wgt id='1724'> +6.2279691e+01 </wgt>
<wgt id='1725'> +6.1002351e+01 </wgt>
<wgt id='1726'> +6.0449772e+01 </wgt>
<wgt id='1727'> +6.2394458e+01 </wgt>
<wgt id='1728'> +6.2376025e+01 </wgt>
<wgt id='1729'> +6.1686755e+01 </wgt>
<wgt id='1730'> +6.1983673e+01 </wgt>
<wgt id='1731'> +6.1764762e+01 </wgt>
<wgt id='1732'> +6.0929398e+01 </wgt>
<wgt id='1733'> +6.2342748e+01 </wgt>
<wgt id='1734'> +6.1572456e+01 </wgt>
<wgt id='1735'> +6.1594485e+01 </wgt>
<wgt id='1736'> +6.1284690e+01 </wgt>
<wgt id='1737'> +6.1156321e+01 </wgt>
<wgt id='1738'> +6.1597246e+01 </wgt>
<wgt id='1739'> +6.1649613e+01 </wgt>
<wgt id='1740'> +6.2073517e+01 </wgt>
<wgt id='1741'> +6.1520283e+01 </wgt>
<wgt id='1742'> +6.1986254e+01 </wgt>
<wgt id='1743'> +6.1905274e+01 </wgt>
<wgt id='1744'> +6.1688222e+01 </wgt>
<wgt id='1745'> +6.1778209e+01 </wgt>
<wgt id='1746'> +6.1733223e+01 </wgt>
<wgt id='1747'> +6.1807555e+01 </wgt>
<wgt id='1748'> +6.1860268e+01 </wgt>
<wgt id='1749'> +6.1797291e+01 </wgt>
<wgt id='1750'> +6.1802876e+01 </wgt>
<wgt id='1751'> +6.1687758e+01 </wgt>
<wgt id='1752'> +6.1828702e+01 </wgt>
<wgt id='1753'> +6.1924874e+01 </wgt>
<wgt id='1754'> +6.1743730e+01 </wgt>
<wgt id='1755'> +6.1805030e+01 </wgt>
<wgt id='1756'> +6.1786090e+01 </wgt>
<wgt id='1757'> +6.1846452e+01 </wgt>
<wgt id='1758'> +6.1843788e+01 </wgt>
<wgt id='1759'> +6.1873528e+01 </wgt>
<wgt id='1760'> +6.1846325e+01 </wgt>
<wgt id='1761'> +6.1768023e+01 </wgt>
<wgt id='1762'> +6.1907465e+01 </wgt>
<wgt id='1763'> +6.1843181e+01 </wgt>
<wgt id='1764'> +6.1877169e+01 </wgt>
<wgt id='1765'> +6.1733604e+01 </wgt>
<wgt id='1766'> +6.1769643e+01 </wgt>
<wgt id='1767'> +6.1850215e+01 </wgt>
<wgt id='1768'> +6.1738282e+01 </wgt>
<wgt id='1769'> +6.1776616e+01 </wgt>
<wgt id='1770'> +6.1759977e+01 </wgt>
<wgt id='1771'> +6.1713508e+01 </wgt>
<wgt id='1772'> +6.1764725e+01 </wgt>
<wgt id='1773'> +6.1808874e+01 </wgt>
<wgt id='1774'> +6.1781927e+01 </wgt>
<wgt id='1775'> +6.1831097e+01 </wgt>
<wgt id='1776'> +6.1888221e+01 </wgt>
<wgt id='1777'> +6.1797854e+01 </wgt>
<wgt id='1778'> +6.1720787e+01 </wgt>
<wgt id='1779'> +6.1849815e+01 </wgt>
<wgt id='1780'> +6.1776851e+01 </wgt>
<wgt id='1781'> +6.1805649e+01 </wgt>
<wgt id='1782'> +6.1779445e+01 </wgt>
<wgt id='1783'> +6.1828774e+01 </wgt>
<wgt id='1784'> +6.1841399e+01 </wgt>
<wgt id='1785'> +6.1804690e+01 </wgt>
<wgt id='1786'> +6.1855919e+01 </wgt>
<wgt id='1787'> +6.1837083e+01 </wgt>
<wgt id='1788'> +6.1781054e+01 </wgt>
<wgt id='1789'> +6.1746865e+01 </wgt>
<wgt id='1790'> +6.1770730e+01 </wgt>
<wgt id='1791'> +6.1776711e+01 </wgt>
<wgt id='1792'> +6.1767741e+01 </wgt>
<wgt id='1793'> +6.1792065e+01 </wgt>
<wgt id='1794'> +6.1808217e+01 </wgt>
<wgt id='1795'> +6.1769772e+01 </wgt>
<wgt id='1796'> +6.1794634e+01 </wgt>
<wgt id='1797'> +6.1855016e+01 </wgt>
<wgt id='1798'> +6.1800719e+01 </wgt>
<wgt id='1799'> +6.1842958e+01 </wgt>
<wgt id='1800'> +6.1773834e+01 </wgt>
<wgt id='1801'> +6.1825581e+01 </wgt>
<wgt id='1802'> +6.1853037e+01 </wgt>
<wgt id='1803'> +6.1829869e+01 </wgt>
<wgt id='1804'> +6.1879000e+01 </wgt>
<wgt id='1805'> +6.1822889e+01 </wgt>
<wgt id='1806'> +6.1810261e+01 </wgt>
<wgt id='1807'> +6.1802505e+01 </wgt>
<wgt id='1808'> +6.1814660e+01 </wgt>
<wgt id='1809'> +6.1775225e+01 </wgt>
<wgt id='1810'> +6.1801208e+01 </wgt>
<wgt id='1811'> +6.1792261e+01 </wgt>
<wgt id='1812'> +6.1794834e+01 </wgt>
<wgt id='1813'> +6.1800437e+01 </wgt>
<wgt id='1814'> +6.1802370e+01 </wgt>
<wgt id='1815'> +6.1821513e+01 </wgt>
<wgt id='1816'> +6.1821836e+01 </wgt>
<wgt id='1817'> +6.1812601e+01 </wgt>
<wgt id='1818'> +6.1808722e+01 </wgt>
<wgt id='1819'> +5.9940031e+01 </wgt>
<wgt id='1820'> +6.3765212e+01 </wgt>
<wgt id='1821'> +6.1210949e+01 </wgt>
<wgt id='1822'> +6.1197694e+01 </wgt>
<wgt id='1823'> +6.1317904e+01 </wgt>
<wgt id='1824'> +6.1015807e+01 </wgt>
<wgt id='1825'> +6.1374924e+01 </wgt>
<wgt id='1826'> +6.1551023e+01 </wgt>
<wgt id='1827'> +6.1283400e+01 </wgt>
<wgt id='1828'> +6.0881646e+01 </wgt>
<wgt id='1829'> +6.1087690e+01 </wgt>
<wgt id='1830'> +6.1245735e+01 </wgt>
<wgt id='1831'> +6.0892629e+01 </wgt>
<wgt id='1832'> +6.1558273e+01 </wgt>
<wgt id='1833'> +6.1778572e+01 </wgt>
<wgt id='1834'> +6.1229833e+01 </wgt>
<wgt id='1835'> +6.1515898e+01 </wgt>
<wgt id='1836'> +6.0968783e+01 </wgt>
<wgt id='1837'> +6.1784945e+01 </wgt>
<wgt id='1838'> +6.0628274e+01 </wgt>
<wgt id='1839'> +6.1339303e+01 </wgt>
<wgt id='1840'> +6.1446409e+01 </wgt>
<wgt id='1841'> +6.1870409e+01 </wgt>
<wgt id='1842'> +6.1191345e+01 </wgt>
<wgt id='1843'> +6.1360355e+01 </wgt>
<wgt id='1844'> +6.0747110e+01 </wgt>
<wgt id='1845'> +6.0970997e+01 </wgt>
<wgt id='1846'> +6.1501112e+01 </wgt>
<wgt id='1847'> +6.1225948e+01 </wgt>
<wgt id='1848'> +6.1143981e+01 </wgt>
<wgt id='1849'> +6.1295060e+01 </wgt>
<wgt id='1850'> +6.1218648e+01 </wgt>
<wgt id='1851'> +6.1229237e+01 </wgt>
<wgt id='1852'> +6.1165468e+01 </wgt>
<wgt id='1853'> +6.1259287e+01 </wgt>
<wgt id='1854'> +6.1285078e+01 </wgt>
<wgt id='1855'> +6.1213001e+01 </wgt>
<wgt id='1856'> +6.1257325e+01 </wgt>
<wgt id='1857'> +6.1230951e+01 </wgt>
<wgt id='1858'> +6.1273182e+01 </wgt>
<wgt id='1859'> +6.1266884e+01 </wgt>
<wgt id='1860'> +6.1238812e+01 </wgt>
<wgt id='1861'> +6.1147212e+01 </wgt>
<wgt id='1862'> +6.1232077e+01 </wgt>
<wgt id='1863'> +6.1273024e+01 </wgt>
<wgt id='1864'> +6.1137491e+01 </wgt>
<wgt id='1865'> +6.1229528e+01 </wgt>
<wgt id='1866'> +6.1270336e+01 </wgt>
<wgt id='1867'> +6.1124633e+01 </wgt>
<wgt id='1868'> +6.1231687e+01 </wgt>
<wgt id='1869'> +6.1261653e+01 </wgt>
<wgt id='1870'> +6.1175090e+01 </wgt>
<wgt id='1871'> +6.1216760e+01 </wgt>
<wgt id='1872'> +6.1253082e+01 </wgt>
<wgt id='1873'> +6.1264374e+01 </wgt>
<wgt id='1874'> +6.1197841e+01 </wgt>
<wgt id='1875'> +6.1160899e+01 </wgt>
<wgt id='1876'> +6.1165051e+01 </wgt>
<wgt id='1877'> +6.1254641e+01 </wgt>
<wgt id='1878'> +6.1214144e+01 </wgt>
<wgt id='1879'> +6.1136059e+01 </wgt>
<wgt id='1880'> +6.1165276e+01 </wgt>
<wgt id='1881'> +6.1171121e+01 </wgt>
<wgt id='1882'> +6.1214450e+01 </wgt>
<wgt id='1883'> +6.1219374e+01 </wgt>
<wgt id='1884'> +6.1230262e+01 </wgt>
<wgt id='1885'> +6.1222176e+01 </wgt>
<wgt id='1886'> +6.1195502e+01 </wgt>
<wgt id='1887'> +6.1202090e+01 </wgt>
<wgt id='1888'> +6.1239371e+01 </wgt>
<wgt id='1889'> +6.1222344e+01 </wgt>
<wgt id='1890'> +6.1265229e+01 </wgt>
<wgt id='1891'> +6.1195626e+01 </wgt>
<wgt id='1892'> +6.1257703e+01 </wgt>
<wgt id='1893'> +6.1258246e+01 </wgt>
<wgt id='1894'> +6.1196716e+01 </wgt>
<wgt id='1895'> +6.1219450e+01 </wgt>
<wgt id='1896'> +6.1198779e+01 </wgt>
<wgt id='1897'> +6.1203893e+01 </wgt>
<wgt id='1898'> +6.1228496e+01 </wgt>
<wgt id='1899'> +6.1209920e+01 </wgt>
<wgt id='1900'> +6.1201900e+01 </wgt>
<wgt id='1901'> +6.1285230e+01 </wgt>
<wgt id='1902'> +6.1210301e+01 </wgt>
<wgt id='1903'> +6.1232962e+01 </wgt>
<wgt id='1904'> +6.1190104e+01 </wgt>
<wgt id='1905'> +6.1184267e+01 </wgt>
<wgt id='1906'> +6.1177961e+01 </wgt>
<wgt id='1907'> +6.1227502e+01 </wgt>
<wgt id='1908'> +6.1138575e+01 </wgt>
<wgt id='1909'> +6.1181461e+01 </wgt>
<wgt id='1910'> +6.1184461e+01 </wgt>
<wgt id='1911'> +6.1220363e+01 </wgt>
<wgt id='1912'> +6.1193974e+01 </wgt>
<wgt id='1913'> +6.1202684e+01 </wgt>
<wgt id='1914'> +6.1191524e+01 </wgt>
<wgt id='1915'> +6.1193209e+01 </wgt>
<wgt id='1916'> +6.1214951e+01 </wgt>
<wgt id='1917'> +6.1199688e+01 </wgt>
<wgt id='1918'> +6.1217738e+01 </wgt>
<wgt id='1919'> +6.1204789e+01 </wgt>
<wgt id='1920'> +6.1196138e+01 </wgt>
<wgt id='1921'> +6.1211907e+01 </wgt>
<wgt id='1922'> +5.9314523e+01 </wgt>
<wgt id='1923'> +6.3249238e+01 </wgt>
<wgt id='1924'> +6.1844397e+01 </wgt>
<wgt id='1925'> +6.2187730e+01 </wgt>
<wgt id='1926'> +6.1130906e+01 </wgt>
<wgt id='1927'> +6.1788538e+01 </wgt>
<wgt id='1928'> +6.0533402e+01 </wgt>
<wgt id='1929'> +6.1766543e+01 </wgt>
<wgt id='1930'> +6.1396351e+01 </wgt>
<wgt id='1931'> +6.1869512e+01 </wgt>
<wgt id='1932'> +6.1905950e+01 </wgt>
<wgt id='1933'> +6.1445029e+01 </wgt>
<wgt id='1934'> +6.2062297e+01 </wgt>
<wgt id='1935'> +6.1323805e+01 </wgt>
<wgt id='1936'> +6.1743049e+01 </wgt>
<wgt id='1937'> +6.1937848e+01 </wgt>
<wgt id='1938'> +6.1734477e+01 </wgt>
<wgt id='1939'> +6.1828412e+01 </wgt>
<wgt id='1940'> +6.1500138e+01 </wgt>
<wgt id='1941'> +6.2545407e+01 </wgt>
<wgt id='1942'> +6.2026081e+01 </wgt>
<wgt id='1943'> +6.1495650e+01 </wgt>
<wgt id='1944'> +6.1585381e+01 </wgt>
<wgt id='1945'> +6.1739665e+01 </wgt>
<wgt id='1946'> +6.1703461e+01 </wgt>
<wgt id='1947'> +6.1891581e+01 </wgt>
<wgt id='1948'> +6.1759091e+01 </wgt>
<wgt id='1949'> +6.1809129e+01 </wgt>
<wgt id='1950'> +6.2233614e+01 </wgt>
<wgt id='1951'> +6.2041481e+01 </wgt>
<wgt id='1952'> +6.3095011e+01 </wgt>
<wgt id='1953'> +6.1871153e+01 </wgt>
<wgt id='1954'> +6.1799326e+01 </wgt>
<wgt id='1955'> +5.9940031e+01 </wgt>
<wgt id='1956'> +6.3765212e+01 </wgt>
<wgt id='1957'> +6.1206838e+01 </wgt>
<wgt id='1958'> +5.9645325e+01 </wgt>
<wgt id='1959'> +6.1281949e+01 </wgt>
<wgt id='1960'> +6.1209795e+01 </wgt>
<wgt id='1961'> +6.1239392e+01 </wgt>
<wgt id='1962'> +6.1321927e+01 </wgt>
<wgt id='1963'> +6.1235149e+01 </wgt>
<wgt id='1964'> +6.1180761e+01 </wgt>
<wgt id='1965'> +6.1240882e+01 </wgt>
<wgt id='1966'> +6.1145440e+01 </wgt>
<wgt id='1967'> +6.0919757e+01 </wgt>
<wgt id='1968'> +6.1132484e+01 </wgt>
<wgt id='1969'> +6.1191369e+01 </wgt>
<wgt id='1970'> +6.1259856e+01 </wgt>
<wgt id='1971'> +6.1158550e+01 </wgt>
<wgt id='1972'> +6.1165650e+01 </wgt>
<wgt id='1973'> +6.1219543e+01 </wgt>
<wgt id='1974'> +6.1322042e+01 </wgt>
<wgt id='1975'> +6.1192104e+01 </wgt>
<wgt id='1976'> +6.1205538e+01 </wgt>
<wgt id='1977'> +6.1279757e+01 </wgt>
<wgt id='1978'> +6.1245475e+01 </wgt>
<wgt id='1979'> +6.1459519e+01 </wgt>
<wgt id='1980'> +6.1225632e+01 </wgt>
<wgt id='1981'> +6.1212070e+01 </wgt>
<wgt id='1982'> +6.1185082e+01 </wgt>
<wgt id='1983'> +6.1200318e+01 </wgt>
<wgt id='1984'> +6.1229053e+01 </wgt>
<wgt id='1985'> +6.1209925e+01 </wgt>
<wgt id='1986'> +6.1066330e+01 </wgt>
<wgt id='1987'> +6.1210401e+01 </wgt>
<wgt id='1988'> +5.9314523e+01 </wgt>
<wgt id='1989'> +6.3249238e+01 </wgt>
<wgt id='1990'> +5.7389052e+01 </wgt>
<wgt id='1991'> +5.7313532e+01 </wgt>
<wgt id='1992'> +5.7464335e+01 </wgt>
<wgt id='1993'> +5.7405618e+01 </wgt>
<wgt id='1994'> +5.7372435e+01 </wgt>
<wgt id='1995'> +5.7473313e+01 </wgt>
<wgt id='1996'> +5.7305194e+01 </wgt>
<wgt id='1997'> +5.7708139e+01 </wgt>
<wgt id='1998'> +5.7076789e+01 </wgt>
<wgt id='1999'> +5.7296728e+01 </wgt>
<wgt id='2000'> +5.7483030e+01 </wgt>
<wgt id='2001'> +5.6924654e+01 </wgt>
<wgt id='2002'> +5.7901947e+01 </wgt>
<wgt id='2003'> +5.7226215e+01 </wgt>
<wgt id='2004'> +5.7555091e+01 </wgt>
<wgt id='2005'> +5.7601918e+01 </wgt>
<wgt id='2006'> +5.7076151e+01 </wgt>
<wgt id='2007'> +5.7689709e+01 </wgt>
<wgt id='2008'> +5.7210258e+01 </wgt>
<wgt id='2009'> +5.7536067e+01 </wgt>
<wgt id='2010'> +5.7188810e+01 </wgt>
<wgt id='2011'> +5.7430400e+01 </wgt>
<wgt id='2012'> +5.7354354e+01 </wgt>
<wgt id='2013'> +5.6783372e+01 </wgt>
<wgt id='2014'> +5.7924358e+01 </wgt>
<wgt id='2015'> +5.7032801e+01 </wgt>
<wgt id='2016'> +5.7769045e+01 </wgt>
<wgt id='2017'> +5.8369613e+01 </wgt>
<wgt id='2018'> +5.6478448e+01 </wgt>
<wgt id='2019'> +5.7389052e+01 </wgt>
<wgt id='2020'> +5.7235805e+01 </wgt>
<wgt id='2021'> +5.6526740e+01 </wgt>
<wgt id='2022'> +5.7242709e+01 </wgt>
<wgt id='2023'> +5.6670912e+01 </wgt>
<wgt id='2024'> +5.6844260e+01 </wgt>
<wgt id='2025'> +5.7582206e+01 </wgt>
<wgt id='2026'> +5.6983909e+01 </wgt>
<wgt id='2027'> +5.6989093e+01 </wgt>
<wgt id='2028'> +5.7415187e+01 </wgt>
<wgt id='2029'> +5.6535975e+01 </wgt>
<wgt id='2030'> +5.6583610e+01 </wgt>
<wgt id='2031'> +5.6812159e+01 </wgt>
<wgt id='2032'> +5.7027498e+01 </wgt>
<wgt id='2033'> +6.1053787e+01 </wgt>
<wgt id='2034'> +6.0426937e+01 </wgt>
<wgt id='2035'> +6.0562005e+01 </wgt>
<wgt id='2036'> +6.0454521e+01 </wgt>
<wgt id='2037'> +6.0534792e+01 </wgt>
<wgt id='2038'> +6.0558603e+01 </wgt>
<wgt id='2039'> +6.0430559e+01 </wgt>
<wgt id='2040'> +6.0888516e+01 </wgt>
<wgt id='2041'> +6.0111760e+01 </wgt>
<wgt id='2042'> +6.0165272e+01 </wgt>
<wgt id='2043'> +6.0834417e+01 </wgt>
<wgt id='2044'> +6.0727988e+01 </wgt>
<wgt id='2045'> +6.0264523e+01 </wgt>
<wgt id='2046'> +6.0417161e+01 </wgt>
<wgt id='2047'> +6.0565418e+01 </wgt>
<wgt id='2048'> +6.0486223e+01 </wgt>
<wgt id='2049'> +6.0318351e+01 </wgt>
<wgt id='2050'> +6.0505610e+01 </wgt>
<wgt id='2051'> +6.0489446e+01 </wgt>
<wgt id='2052'> +6.0433985e+01 </wgt>
<wgt id='2053'> +6.0565102e+01 </wgt>
<wgt id='2054'> +6.0870209e+01 </wgt>
<wgt id='2055'> +6.0125202e+01 </wgt>
<wgt id='2056'> +6.0074211e+01 </wgt>
<wgt id='2057'> +6.0930146e+01 </wgt>
<wgt id='2058'> +5.9554703e+01 </wgt>
<wgt id='2059'> +6.1405510e+01 </wgt>
<wgt id='2060'> +6.0101465e+01 </wgt>
<wgt id='2061'> +6.0924171e+01 </wgt>
<wgt id='2062'> +6.0959958e+01 </wgt>
<wgt id='2063'> +6.0662206e+01 </wgt>
<wgt id='2064'> +5.9747906e+01 </wgt>
<wgt id='2065'> +6.0624510e+01 </wgt>
<wgt id='2066'> +6.0214820e+01 </wgt>
<wgt id='2067'> +5.9182389e+01 </wgt>
<wgt id='2068'> +6.0181677e+01 </wgt>
<wgt id='2069'> +6.0377125e+01 </wgt>
<wgt id='2070'> +6.0603196e+01 </wgt>
<wgt id='2071'> +6.0763821e+01 </wgt>
<wgt id='2072'> +5.8489593e+01 </wgt>
<wgt id='2073'> +6.0371486e+01 </wgt>
<wgt id='2074'> +6.0589723e+01 </wgt>
<wgt id='2075'> +6.0927344e+01 </wgt>
<wgt id='2076'> +5.9840262e+01 </wgt>
<wgt id='2077'> +5.9833503e+01 </wgt>
<wgt id='2078'> +5.9826796e+01 </wgt>
<wgt id='2079'> +5.9819611e+01 </wgt>
<wgt id='2080'> +5.9812751e+01 </wgt>
<wgt id='2081'> +5.9806247e+01 </wgt>
<wgt id='2082'> +5.9799226e+01 </wgt>
<wgt id='2083'> +5.9792689e+01 </wgt>
<wgt id='2084'> +5.9785546e+01 </wgt>
<wgt id='2085'> +5.9779105e+01 </wgt>
<wgt id='2086'> +5.9771963e+01 </wgt>
<wgt id='2087'> +5.9765284e+01 </wgt>
<wgt id='2088'> +5.9758449e+01 </wgt>
<wgt id='2089'> +5.9751488e+01 </wgt>
<wgt id='2090'> +5.9744826e+01 </wgt>
<wgt id='2091'> +5.9738004e+01 </wgt>
<wgt id='2092'> +5.9731058e+01 </wgt>
<wgt id='2093'> +5.9724395e+01 </wgt>
<wgt id='2094'> +5.9717475e+01 </wgt>
<wgt id='2095'> +5.9710679e+01 </wgt>
<wgt id='2096'> +5.9703849e+01 </wgt>
<wgt id='2097'> +5.9697011e+01 </wgt>
<wgt id='2098'> +5.9690286e+01 </wgt>
<wgt id='2099'> +5.9683740e+01 </wgt>
<wgt id='2100'> +5.9676666e+01 </wgt>
<wgt id='2101'> +5.9669703e+01 </wgt>
<wgt id='2102'> +5.9662867e+01 </wgt>
<wgt id='2103'> +5.9656214e+01 </wgt>
<wgt id='2104'> +5.9649465e+01 </wgt>
<wgt id='2105'> +5.9642493e+01 </wgt>
<wgt id='2106'> +5.9635787e+01 </wgt>
<wgt id='2107'> +6.0464296e+01 </wgt>
<wgt id='2108'> +6.0438457e+01 </wgt>
<wgt id='2109'> +6.0558440e+01 </wgt>
<wgt id='2110'> +6.0281894e+01 </wgt>
<wgt id='2111'> +6.0625936e+01 </wgt>
<wgt id='2112'> +6.0804466e+01 </wgt>
<wgt id='2113'> +6.0549879e+01 </wgt>
<wgt id='2114'> +6.0143199e+01 </wgt>
<wgt id='2115'> +6.0341364e+01 </wgt>
<wgt id='2116'> +6.0504072e+01 </wgt>
<wgt id='2117'> +6.0153471e+01 </wgt>
<wgt id='2118'> +6.0822358e+01 </wgt>
<wgt id='2119'> +6.1031217e+01 </wgt>
<wgt id='2120'> +6.0495493e+01 </wgt>
<wgt id='2121'> +6.0752993e+01 </wgt>
<wgt id='2122'> +6.0192697e+01 </wgt>
<wgt id='2123'> +6.1046123e+01 </wgt>
<wgt id='2124'> +5.9886279e+01 </wgt>
<wgt id='2125'> +6.0587752e+01 </wgt>
<wgt id='2126'> +6.0706525e+01 </wgt>
<wgt id='2127'> +6.1131534e+01 </wgt>
<wgt id='2128'> +6.0430157e+01 </wgt>
<wgt id='2129'> +6.0611339e+01 </wgt>
<wgt id='2130'> +6.0009512e+01 </wgt>
<wgt id='2131'> +6.0219108e+01 </wgt>
<wgt id='2132'> +6.0739435e+01 </wgt>
<wgt id='2133'> +6.0465759e+01 </wgt>
<wgt id='2134'> +6.0410520e+01 </wgt>
<wgt id='2135'> +6.0554333e+01 </wgt>
<wgt id='2136'> +6.0466287e+01 </wgt>
<wgt id='2137'> +6.0475722e+01 </wgt>
<wgt id='2138'> +6.0435381e+01 </wgt>
<wgt id='2139'> +6.0509431e+01 </wgt>
<wgt id='2140'> +6.0535998e+01 </wgt>
<wgt id='2141'> +6.0463687e+01 </wgt>
<wgt id='2142'> +6.0507968e+01 </wgt>
<wgt id='2143'> +6.0484929e+01 </wgt>
<wgt id='2144'> +6.0528157e+01 </wgt>
<wgt id='2145'> +6.0518200e+01 </wgt>
<wgt id='2146'> +6.0486777e+01 </wgt>
<wgt id='2147'> +6.0400928e+01 </wgt>
<wgt id='2148'> +6.0479053e+01 </wgt>
<wgt id='2149'> +6.0521510e+01 </wgt>
<wgt id='2150'> +6.0401573e+01 </wgt>
<wgt id='2151'> +6.0482104e+01 </wgt>
<wgt id='2152'> +6.0519548e+01 </wgt>
<wgt id='2153'> +6.0383109e+01 </wgt>
<wgt id='2154'> +6.0479619e+01 </wgt>
<wgt id='2155'> +6.0516670e+01 </wgt>
<wgt id='2156'> +6.0425707e+01 </wgt>
<wgt id='2157'> +6.0472160e+01 </wgt>
<wgt id='2158'> +6.0505459e+01 </wgt>
<wgt id='2159'> +6.0515808e+01 </wgt>
<wgt id='2160'> +6.0453975e+01 </wgt>
<wgt id='2161'> +6.0417042e+01 </wgt>
<wgt id='2162'> +6.0420985e+01 </wgt>
<wgt id='2163'> +6.0502529e+01 </wgt>
<wgt id='2164'> +6.0466347e+01 </wgt>
<wgt id='2165'> +6.0396488e+01 </wgt>
<wgt id='2166'> +6.0421929e+01 </wgt>
<wgt id='2167'> +6.0427090e+01 </wgt>
<wgt id='2168'> +6.0468069e+01 </wgt>
<wgt id='2169'> +6.0470913e+01 </wgt>
<wgt id='2170'> +6.0482341e+01 </wgt>
<wgt id='2171'> +6.0475773e+01 </wgt>
<wgt id='2172'> +6.0448956e+01 </wgt>
<wgt id='2173'> +6.0455755e+01 </wgt>
<wgt id='2174'> +6.0490498e+01 </wgt>
<wgt id='2175'> +6.0476354e+01 </wgt>
<wgt id='2176'> +6.0516132e+01 </wgt>
<wgt id='2177'> +6.0447918e+01 </wgt>
<wgt id='2178'> +6.0512878e+01 </wgt>
<wgt id='2179'> +6.0510854e+01 </wgt>
<wgt id='2180'> +6.0447764e+01 </wgt>
<wgt id='2181'> +6.0472731e+01 </wgt>
<wgt id='2182'> +6.0452272e+01 </wgt>
<wgt id='2183'> +6.0461247e+01 </wgt>
<wgt id='2184'> +6.0482192e+01 </wgt>
<wgt id='2185'> +6.0466902e+01 </wgt>
<wgt id='2186'> +6.0454982e+01 </wgt>
<wgt id='2187'> +6.0534391e+01 </wgt>
<wgt id='2188'> +6.0466523e+01 </wgt>
<wgt id='2189'> +6.0487290e+01 </wgt>
<wgt id='2190'> +6.0443174e+01 </wgt>
<wgt id='2191'> +6.0436535e+01 </wgt>
<wgt id='2192'> +6.0433242e+01 </wgt>
<wgt id='2193'> +6.0484250e+01 </wgt>
<wgt id='2194'> +6.0391741e+01 </wgt>
<wgt id='2195'> +6.0433747e+01 </wgt>
<wgt id='2196'> +6.0436576e+01 </wgt>
<wgt id='2197'> +6.0472992e+01 </wgt>
<wgt id='2198'> +6.0445923e+01 </wgt>
<wgt id='2199'> +6.0455082e+01 </wgt>
<wgt id='2200'> +6.0445489e+01 </wgt>
<wgt id='2201'> +6.0444765e+01 </wgt>
<wgt id='2202'> +6.0468717e+01 </wgt>
<wgt id='2203'> +6.0453777e+01 </wgt>
<wgt id='2204'> +6.0470761e+01 </wgt>
<wgt id='2205'> +6.0458267e+01 </wgt>
<wgt id='2206'> +6.0450659e+01 </wgt>
<wgt id='2207'> +6.0465889e+01 </wgt>
<wgt id='2208'> +6.0463621e+01 </wgt>
<wgt id='2209'> +6.0459843e+01 </wgt>
<wgt id='2210'> +6.0465004e+01 </wgt>
<wgt id='2211'> +6.0465119e+01 </wgt>
<wgt id='2212'> +6.0466360e+01 </wgt>
<wgt id='2213'> +6.0464596e+01 </wgt>
<wgt id='2214'> +6.0461323e+01 </wgt>
<wgt id='2215'> +6.4212989e+01 </wgt>
<wgt id='2216'> +6.4717253e+01 </wgt>
<wgt id='2217'> +6.4770767e+01 </wgt>
<wgt id='2218'> +6.6157296e+01 </wgt>
<wgt id='2219'> +6.2410736e+01 </wgt>
<wgt id='2220'> +6.3693283e+01 </wgt>
<wgt id='2221'> +6.5053428e+01 </wgt>
<wgt id='2222'> +6.3921005e+01 </wgt>
<wgt id='2223'> +6.4264285e+01 </wgt>
<wgt id='2224'> +6.5730639e+01 </wgt>
<wgt id='2225'> +6.3640915e+01 </wgt>
<wgt id='2226'> +6.0515573e+01 </wgt>
<wgt id='2227'> +6.4940470e+01 </wgt>
<wgt id='2228'> +6.2872150e+01 </wgt>
<wgt id='2229'> +6.4492445e+01 </wgt>
<wgt id='2230'> +6.5968551e+01 </wgt>
<wgt id='2231'> +6.5447043e+01 </wgt>
<wgt id='2232'> +6.5409807e+01 </wgt>
<wgt id='2233'> +6.5642581e+01 </wgt>
<wgt id='2234'> +6.4581670e+01 </wgt>
<wgt id='2235'> +6.7725301e+01 </wgt>
<wgt id='2236'> +6.4427047e+01 </wgt>
<wgt id='2237'> +6.3137553e+01 </wgt>
<wgt id='2238'> +6.6128745e+01 </wgt>
<wgt id='2239'> +6.4142783e+01 </wgt>
<wgt id='2240'> +6.3326902e+01 </wgt>
<wgt id='2241'> +6.4326237e+01 </wgt>
<wgt id='2242'> +6.5414034e+01 </wgt>
<wgt id='2243'> +6.3729862e+01 </wgt>
<wgt id='2244'> +6.6350587e+01 </wgt>
<wgt id='2245'> +6.6286899e+01 </wgt>
<wgt id='2246'> +6.3064606e+01 </wgt>
<wgt id='2247'> +6.2601925e+01 </wgt>
<wgt id='2248'> +6.2446518e+01 </wgt>
<wgt id='2249'> +6.3717938e+01 </wgt>
<wgt id='2250'> +6.5928728e+01 </wgt>
<wgt id='2251'> +6.3533934e+01 </wgt>
<wgt id='2252'> +6.5399367e+01 </wgt>
<wgt id='2253'> +6.3948282e+01 </wgt>
<wgt id='2254'> +6.3849863e+01 </wgt>
<wgt id='2255'> +6.2761967e+01 </wgt>
<wgt id='2256'> +6.4376981e+01 </wgt>
<wgt id='2257'> +6.3611935e+01 </wgt>
<wgt id='2258'> +6.2849051e+01 </wgt>
<wgt id='2259'> +6.4551866e+01 </wgt>
<wgt id='2260'> +6.4065846e+01 </wgt>
<wgt id='2261'> +6.4981273e+01 </wgt>
<wgt id='2262'> +6.3757001e+01 </wgt>
<wgt id='2263'> +6.4317810e+01 </wgt>
<wgt id='2264'> +6.4160879e+01 </wgt>
<wgt id='2265'> +6.3256662e+01 </wgt>
<wgt id='2266'> +6.3378051e+01 </wgt>
<wgt id='2267'> +6.3550640e+01 </wgt>
<wgt id='2268'> +6.4967708e+01 </wgt>
<wgt id='2269'> +6.2658153e+01 </wgt>
<wgt id='2270'> +6.2804787e+01 </wgt>
<wgt id='2271'> +6.4653714e+01 </wgt>
<wgt id='2272'> +6.3985182e+01 </wgt>
<wgt id='2273'> +6.2939441e+01 </wgt>
<wgt id='2274'> +6.6708406e+01 </wgt>
<wgt id='2275'> +6.3778291e+01 </wgt>
<wgt id='2276'> +6.3914571e+01 </wgt>
<wgt id='2277'> +6.5631519e+01 </wgt>
<wgt id='2278'> +6.2470277e+01 </wgt>
<wgt id='2279'> +6.4489160e+01 </wgt>
<wgt id='2280'> +6.3982166e+01 </wgt>
<wgt id='2281'> +6.3574363e+01 </wgt>
<wgt id='2282'> +6.8369353e+01 </wgt>
<wgt id='2283'> +6.3986063e+01 </wgt>
<wgt id='2284'> +6.2159902e+01 </wgt>
<wgt id='2285'> +6.2038099e+01 </wgt>
<wgt id='2286'> +6.2940762e+01 </wgt>
<wgt id='2287'> +6.4620690e+01 </wgt>
<wgt id='2288'> +6.3090741e+01 </wgt>
<wgt id='2289'> +6.5235623e+01 </wgt>
<wgt id='2290'> +6.3903632e+01 </wgt>
<wgt id='2291'> +6.2145451e+01 </wgt>
<wgt id='2292'> +6.2814612e+01 </wgt>
<wgt id='2293'> +6.4528405e+01 </wgt>
<wgt id='2294'> +6.3786202e+01 </wgt>
<wgt id='2295'> +6.3088682e+01 </wgt>
<wgt id='2296'> +6.4056510e+01 </wgt>
<wgt id='2297'> +6.2325382e+01 </wgt>
<wgt id='2298'> +6.7203461e+01 </wgt>
<wgt id='2299'> +6.3755321e+01 </wgt>
<wgt id='2300'> +6.4378214e+01 </wgt>
<wgt id='2301'> +6.3543693e+01 </wgt>
<wgt id='2302'> +6.4952609e+01 </wgt>
<wgt id='2303'> +6.4149242e+01 </wgt>
<wgt id='2304'> +6.6777630e+01 </wgt>
<wgt id='2305'> +6.3110830e+01 </wgt>
<wgt id='2306'> +6.3442151e+01 </wgt>
<wgt id='2307'> +6.3377435e+01 </wgt>
<wgt id='2308'> +6.4991423e+01 </wgt>
<wgt id='2309'> +6.6003336e+01 </wgt>
<wgt id='2310'> +6.4187975e+01 </wgt>
<wgt id='2311'> +6.4552097e+01 </wgt>
<wgt id='2312'> +6.4392539e+01 </wgt>
<wgt id='2313'> +6.3846611e+01 </wgt>
<wgt id='2314'> +6.4796788e+01 </wgt>
<wgt id='2315'> +6.5364907e+01 </wgt>
<wgt id='2316'> +6.2772540e+01 </wgt>
<wgt id='2317'> +6.5204807e+01 </wgt>
<wgt id='2318'> +6.1989675e+01 </wgt>
<wgt id='2319'> +5.8763452e+01 </wgt>
<wgt id='2320'> +7.6173308e+01 </wgt>
<wgt id='2321'> +6.5374956e+01 </wgt>
<wgt id='2322'> +7.4155108e+01 </wgt>
</rwgt>
</event>
<event>
12      2 +6.1139206e+01 2.28887900e+02 7.56146200e-03 1.03637700e-01
       21 -1    0    0  504  503 +0.0000000000e+00 +0.0000000000e+00 +3.8371435713e+02 3.8371435713e+02 0.0000000000e+00 0.0000e+00 1.0000e+00
       21 -1    0    0  505  504 -0.0000000000e+00 -0.0000000000e+00 -4.2171232998e+02 4.2171232998e+02 0.0000000000e+00 0.0000e+00 -1.0000e+00
        6  2    1    2  501    0 -1.5504942116e+02 -3.7415784302e+01 -2.6061268123e+02 3.5106620721e+02 1.7288218042e+02 0.0000e+00 0.0000e+00
       -6  2    1    2    0  503 +1.4411704801e+02 +3.5952356478e+01 +2.9962591395e+02 3.7656340936e+02 1.7309539998e+02 0.0000e+00 0.0000e+00
      -24  2    4    4    0    0 +7.8334372293e+00 +3.4996062099e+01 +7.3294343014e+01 1.1233322662e+02 7.7204960881e+01 0.0000e+00 0.0000e+00
      -15  1    3    3    0    0 -1.7439108299e+00 -3.9007766536e+01 -1.3909622530e+02 1.4447285893e+02 0.0000000000e+00 0.0000e+00 1.0000e+00
       16  1    3    3    0    0 -1.1791211206e+02 +1.1082301189e+01 -1.2155691697e+02 1.6971201382e+02 0.0000000000e+00 0.0000e+00 -1.0000e+00
        5  1    3    3  501    0 -3.5393398265e+01 -9.4903189554e+00 +4.0461033576e-02 3.6881334462e+01 4.1800000000e+00 0.0000e+00 -1.0000e+00
        3  1    5    5  502    0 +4.2612564806e+01 +2.1464656755e+01 +3.8477724858e+01 6.1295166851e+01 0.0000000000e+00 0.0000e+00 -1.0000e+00
       -4  1    5    5    0  502 -3.4779127577e+01 +1.3531405344e+01 +3.4816618156e+01 5.1038059774e+01 0.0000000000e+00 0.0000e+00 1.0000e+00
       -5  1    4    4    0  503 +1.3628361078e+02 +9.5629437863e-01 +2.2633157093e+02 2.6423018273e+02 4.1800000000e+00 0.0000e+00 1.0000e+00
       21  1    1    2  505  501 +1.0932373152e+01 +1.4634278242e+00 -7.7011205567e+01 7.7797070553e+01 0.0000000000e+00 0.0000e+00 -1.0000e+00
<scales pt_clust_6="13000.00000" pt_clust_7="13000.00000" pt_clust_8="13000.00000" pt_clust_9="13000.00000" pt_clust_10="13000.00000" pt_clust_11="13000.00000" pt_clust_12="11.02989"></scales>
<mgrwt>
<rscale>  2 0.22884755E+03</rscale>
<asrwt>  1 0.11029887E+02</asrwt>
<pdfrwt beam="1">  1       21 0.59032978E-01 0.22888786E+03</pdfrwt>
<pdfrwt beam="2">  2       21       21 0.64878820E-01 0.52904054E-01 0.11029887E+02 0.22888786E+03</pdfrwt>
<totfact> 0.24568282E+01</totfact>
</mgrwt>
<clustering>
<clus scale="   11.030">  2 12  1 -1</clus>
<clus scale="   72.796">  6  7 -1 -1</clus>
<clus scale="   77.205">  9 10 -1 -1</clus>
<clus scale="  172.882">  6  8 -1 -1</clus>
<clus scale="  173.095">  9 11 -1 -1</clus>
<clus scale="  228.727">  2  6  1 -1</clus>
<clus scale="  228.888">  1  6  2 -1</clus>
</clustering>
<rwgt>
<wgt id='dummy'> +6.1139206e+01 </wgt>
<wgt id='ctGRe_0p_cQj18_0p_cQj38_0p_cQj11_0p_cjj31_0p_ctu8_0p_ctd8_0p_ctj8_0p_cQu8_0p_cQd8_0p_ctu1_0p_ctd1_0p_ctj1_0p_cQu1_0p_cQd1_0p'> +6.1139206e+01 </wgt>
<wgt id='ctGRe_1p_cQj18_0p_cQj38_0p_cQj11_0p_cjj31_0p_ctu8_0p_ctd8_0p_ctj8_0p_cQu8_0p_cQd8_0p_ctu1_0p_ctd1_0p_ctj1_0p_cQu1_0p_cQd1_0p'> +4.9170782e+01 </wgt>
<wgt id='ctGRe_0p_cQj18_1p_cQj38_0p_cQj11_0p_cjj31_0p_ctu8_0p_ctd8_0p_ctj8_0p_cQu8_0p_cQd8_0p_ctu1_0p_ctd1_0p_ctj1_0p_cQu1_0p_cQd1_0p'> +6.1139206e+01 </wgt>
<wgt id='ctGRe_0p_cQj18_0p_cQj38_1p_cQj11_0p_cjj31_0p_ctu8_0p_ctd8_0p_ctj8_0p_cQu8_0p_cQd8_0p_ctu1_0p_ctd1_0p_ctj1_0p_cQu1_0p_cQd1_0p'> +6.1139206e+01 </wgt>
<wgt id='ctGRe_0p_cQj18_0p_cQj38_0p_cQj11_1p_cjj31_0p_ctu8_0p_ctd8_0p_ctj8_0p_cQu8_0p_cQd8_0p_ctu1_0p_ctd1_0p_ctj1_0p_cQu1_0p_cQd1_0p'> +6.1139206e+01 </wgt>
<wgt id='ctGRe_0p_cQj18_0p_cQj38_0p_cQj11_0p_cjj31_1p_ctu8_0p_ctd8_0p_ctj8_0p_cQu8_0p_cQd8_0p_ctu1_0p_ctd1_0p_ctj1_0p_cQu1_0p_cQd1_0p'> +6.1139206e+01 </wgt>
<wgt id='ctGRe_0p_cQj18_0p_cQj38_0p_cQj11_0p_cjj31_0p_ctu8_1p_ctd8_0p_ctj8_0p_cQu8_0p_cQd8_0p_ctu1_0p_ctd1_0p_ctj1_0p_cQu1_0p_cQd1_0p'> +6.1139206e+01 </wgt>
<wgt id='ctGRe_0p_cQj18_0p_cQj38_0p_cQj11_0p_cjj31_0p_ctu8_0p_ctd8_1p_ctj8_0p_cQu8_0p_cQd8_0p_ctu1_0p_ctd1_0p_ctj1_0p_cQu1_0p_cQd1_0p'> +6.1139206e+01 </wgt>
<wgt id='ctGRe_0p_cQj18_0p_cQj38_0p_cQj11_0p_cjj31_0p_ctu8_0p_ctd8_0p_ctj8_1p_cQu8_0p_cQd8_0p_ctu1_0p_ctd1_0p_ctj1_0p_cQu1_0p_cQd1_0p'> +6.1139206e+01 </wgt>
<wgt id='ctGRe_0p_cQj18_0p_cQj38_0p_cQj11_0p_cjj31_0p_ctu8_0p_ctd8_0p_ctj8_0p_cQu8_1p_cQd8_0p_ctu1_0p_ctd1_0p_ctj1_0p_cQu1_0p_cQd1_0p'> +6.1139206e+01 </wgt>
<wgt id='ctGRe_0p_cQj18_0p_cQj38_0p_cQj11_0p_cjj31_0p_ctu8_0p_ctd8_0p_ctj8_0p_cQu8_0p_cQd8_1p_ctu1_0p_ctd1_0p_ctj1_0p_cQu1_0p_cQd1_0p'> +6.1139206e+01 </wgt>
<wgt id='ctGRe_0p_cQj18_0p_cQj38_0p_cQj11_0p_cjj31_0p_ctu8_0p_ctd8_0p_ctj8_0p_cQu8_0p_cQd8_0p_ctu1_1p_ctd1_0p_ctj1_0p_cQu1_0p_cQd1_0p'> +6.1139206e+01 </wgt>
<wgt id='ctGRe_0p_cQj18_0p_cQj38_0p_cQj11_0p_cjj31_0p_ctu8_0p_ctd8_0p_ctj8_0p_cQu8_0p_cQd8_0p_ctu1_0p_ctd1_1p_ctj1_0p_cQu1_0p_cQd1_0p'> +6.1139206e+01 </wgt>
<wgt id='ctGRe_0p_cQj18_0p_cQj38_0p_cQj11_0p_cjj31_0p_ctu8_0p_ctd8_0p_ctj8_0p_cQu8_0p_cQd8_0p_ctu1_0p_ctd1_0p_ctj1_1p_cQu1_0p_cQd1_0p'> +6.1139206e+01 </wgt>
<wgt id='ctGRe_0p_cQj18_0p_cQj38_0p_cQj11_0p_cjj31_0p_ctu8_0p_ctd8_0p_ctj8_0p_cQu8_0p_cQd8_0p_ctu1_0p_ctd1_0p_ctj1_0p_cQu1_1p_cQd1_0p'> +6.1139206e+01 </wgt>
<wgt id='ctGRe_0p_cQj18_0p_cQj38_0p_cQj11_0p_cjj31_0p_ctu8_0p_ctd8_0p_ctj8_0p_cQu8_0p_cQd8_0p_ctu1_0p_ctd1_0p_ctj1_0p_cQu1_0p_cQd1_1p'> +6.1139206e+01 </wgt>
<wgt id='ctGRe_2p_cQj18_0p_cQj38_0p_cQj11_0p_cjj31_0p_ctu8_0p_ctd8_0p_ctj8_0p_cQu8_0p_cQd8_0p_ctu1_0p_ctd1_0p_ctj1_0p_cQu1_0p_cQd1_0p'> +3.8746640e+01 </wgt>
<wgt id='ctGRe_1p_cQj18_1p_cQj38_0p_cQj11_0p_cjj31_0p_ctu8_0p_ctd8_0p_ctj8_0p_cQu8_0p_cQd8_0p_ctu1_0p_ctd1_0p_ctj1_0p_cQu1_0p_cQd1_0p'> +4.9170782e+01 </wgt>
<wgt id='ctGRe_1p_cQj18_0p_cQj38_1p_cQj11_0p_cjj31_0p_ctu8_0p_ctd8_0p_ctj8_0p_cQu8_0p_cQd8_0p_ctu1_0p_ctd1_0p_ctj1_0p_cQu1_0p_cQd1_0p'> +4.9170782e+01 </wgt>
<wgt id='ctGRe_1p_cQj18_0p_cQj38_0p_cQj11_1p_cjj31_0p_ctu8_0p_ctd8_0p_ctj8_0p_cQu8_0p_cQd8_0p_ctu1_0p_ctd1_0p_ctj1_0p_cQu1_0p_cQd1_0p'> +4.9170782e+01 </wgt>
<wgt id='ctGRe_1p_cQj18_0p_cQj38_0p_cQj11_0p_cjj31_1p_ctu8_0p_ctd8_0p_ctj8_0p_cQu8_0p_cQd8_0p_ctu1_0p_ctd1_0p_ctj1_0p_cQu1_0p_cQd1_0p'> +4.9170782e+01 </wgt>
<wgt id='ctGRe_1p_cQj18_0p_cQj38_0p_cQj11_0p_cjj31_0p_ctu8_1p_ctd8_0p_ctj8_0p_cQu8_0p_cQd8_0p_ctu1_0p_ctd1_0p_ctj1_0p_cQu1_0p_cQd1_0p'> +4.9170782e+01 </wgt>
<wgt id='ctGRe_1p_cQj18_0p_cQj38_0p_cQj11_0p_cjj31_0p_ctu8_0p_ctd8_1p_ctj8_0p_cQu8_0p_cQd8_0p_ctu1_0p_ctd1_0p_ctj1_0p_cQu1_0p_cQd1_0p'> +4.9170782e+01 </wgt>
<wgt id='ctGRe_1p_cQj18_0p_cQj38_0p_cQj11_0p_cjj31_0p_ctu8_0p_ctd8_0p_ctj8_1p_cQu8_0p_cQd8_0p_ctu1_0p_ctd1_0p_ctj1_0p_cQu1_0p_cQd1_0p'> +4.9170782e+01 </wgt>
<wgt id='ctGRe_1p_cQj18_0p_cQj38_0p_cQj11_0p_cjj31_0p_ctu8_0p_ctd8_0p_ctj8_0p_cQu8_1p_cQd8_0p_ctu1_0p_ctd1_0p_ctj1_0p_cQu1_0p_cQd1_0p'> +4.9170782e+01 </wgt>
<wgt id='ctGRe_1p_cQj18_0p_cQj38_0p_cQj11_0p_cjj31_0p_ctu8_0p_ctd8_0p_ctj8_0p_cQu8_0p_cQd8_1p_ctu1_0p_ctd1_0p_ctj1_0p_cQu1_0p_cQd1_0p'> +4.9170782e+01 </wgt>
<wgt id='ctGRe_1p_cQj18_0p_cQj38_0p_cQj11_0p_cjj31_0p_ctu8_0p_ctd8_0p_ctj8_0p_cQu8_0p_cQd8_0p_ctu1_1p_ctd1_0p_ctj1_0p_cQu1_0p_cQd1_0p'> +4.9170782e+01 </wgt>
<wgt id='ctGRe_1p_cQj18_0p_cQj38_0p_cQj11_0p_cjj31_0p_ctu8_0p_ctd8_0p_ctj8_0p_cQu8_0p_cQd8_0p_ctu1_0p_ctd1_1p_ctj1_0p_cQu1_0p_cQd1_0p'> +4.9170782e+01 </wgt>
<wgt id='ctGRe_1p_cQj18_0p_cQj38_0p_cQj11_0p_cjj31_0p_ctu8_0p_ctd8_0p_ctj8_0p_cQu8_0p_cQd8_0p_ctu1_0p_ctd1_0p_ctj1_1p_cQu1_0p_cQd1_0p'> +4.9170782e+01 </wgt>
<wgt id='ctGRe_1p_cQj18_0p_cQj38_0p_cQj11_0p_cjj31_0p_ctu8_0p_ctd8_0p_ctj8_0p_cQu8_0p_cQd8_0p_ctu1_0p_ctd1_0p_ctj1_0p_cQu1_1p_cQd1_0p'> +4.9170782e+01 </wgt>
<wgt id='ctGRe_1p_cQj18_0p_cQj38_0p_cQj11_0p_cjj31_0p_ctu8_0p_ctd8_0p_ctj8_0p_cQu8_0p_cQd8_0p_ctu1_0p_ctd1_0p_ctj1_0p_cQu1_0p_cQd1_1p'> +4.9170782e+01 </wgt>
<wgt id='ctGRe_0p_cQj18_2p_cQj38_0p_cQj11_0p_cjj31_0p_ctu8_0p_ctd8_0p_ctj8_0p_cQu8_0p_cQd8_0p_ctu1_0p_ctd1_0p_ctj1_0p_cQu1_0p_cQd1_0p'> +6.1139206e+01 </wgt>
<wgt id='ctGRe_0p_cQj18_1p_cQj38_1p_cQj11_0p_cjj31_0p_ctu8_0p_ctd8_0p_ctj8_0p_cQu8_0p_cQd8_0p_ctu1_0p_ctd1_0p_ctj1_0p_cQu1_0p_cQd1_0p'> +6.1139206e+01 </wgt>
<wgt id='ctGRe_0p_cQj18_1p_cQj38_0p_cQj11_1p_cjj31_0p_ctu8_0p_ctd8_0p_ctj8_0p_cQu8_0p_cQd8_0p_ctu1_0p_ctd1_0p_ctj1_0p_cQu1_0p_cQd1_0p'> +6.1139206e+01 </wgt>
<wgt id='ctGRe_0p_cQj18_1p_cQj38_0p_cQj11_0p_cjj31_1p_ctu8_0p_ctd8_0p_ctj8_0p_cQu8_0p_cQd8_0p_ctu1_0p_ctd1_0p_ctj1_0p_cQu1_0p_cQd1_0p'> +6.1139206e+01 </wgt>
<wgt id='ctGRe_0p_cQj18_1p_cQj38_0p_cQj11_0p_cjj31_0p_ctu8_1p_ctd8_0p_ctj8_0p_cQu8_0p_cQd8_0p_ctu1_0p_ctd1_0p_ctj1_0p_cQu1_0p_cQd1_0p'> +6.1139206e+01 </wgt>
<wgt id='ctGRe_0p_cQj18_1p_cQj38_0p_cQj11_0p_cjj31_0p_ctu8_0p_ctd8_1p_ctj8_0p_cQu8_0p_cQd8_0p_ctu1_0p_ctd1_0p_ctj1_0p_cQu1_0p_cQd1_0p'> +6.1139206e+01 </wgt>
<wgt id='ctGRe_0p_cQj18_1p_cQj38_0p_cQj11_0p_cjj31_0p_ctu8_0p_ctd8_0p_ctj8_1p_cQu8_0p_cQd8_0p_ctu1_0p_ctd1_0p_ctj1_0p_cQu1_0p_cQd1_0p'> +6.1139206e+01 </wgt>
<wgt id='ctGRe_0p_cQj18_1p_cQj38_0p_cQj11_0p_cjj31_0p_ctu8_0p_ctd8_0p_ctj8_0p_cQu8_1p_cQd8_0p_ctu1_0p_ctd1_0p_ctj1_0p_cQu1_0p_cQd1_0p'> +6.1139206e+01 </wgt>
<wgt id='ctGRe_0p_cQj18_1p_cQj38_0p_cQj11_0p_cjj31_0p_ctu8_0p_ctd8_0p_ctj8_0p_cQu8_0p_cQd8_1p_ctu1_0p_ctd1_0p_ctj1_0p_cQu1_0p_cQd1_0p'> +6.1139206e+01 </wgt>
<wgt id='ctGRe_0p_cQj18_1p_cQj38_0p_cQj11_0p_cjj31_0p_ctu8_0p_ctd8_0p_ctj8_0p_cQu8_0p_cQd8_0p_ctu1_1p_ctd1_0p_ctj1_0p_cQu1_0p_cQd1_0p'> +6.1139206e+01 </wgt>
<wgt id='ctGRe_0p_cQj18_1p_cQj38_0p_cQj11_0p_cjj31_0p_ctu8_0p_ctd8_0p_ctj8_0p_cQu8_0p_cQd8_0p_ctu1_0p_ctd1_1p_ctj1_0p_cQu1_0p_cQd1_0p'> +6.1139206e+01 </wgt>
<wgt id='ctGRe_0p_cQj18_1p_cQj38_0p_cQj11_0p_cjj31_0p_ctu8_0p_ctd8_0p_ctj8_0p_cQu8_0p_cQd8_0p_ctu1_0p_ctd1_0p_ctj1_1p_cQu1_0p_cQd1_0p'> +6.1139206e+01 </wgt>
<wgt id='ctGRe_0p_cQj18_1p_cQj38_0p_cQj11_0p_cjj31_0p_ctu8_0p_ctd8_0p_ctj8_0p_cQu8_0p_cQd8_0p_ctu1_0p_ctd1_0p_ctj1_0p_cQu1_1p_cQd1_0p'> +6.1139206e+01 </wgt>
<wgt id='ctGRe_0p_cQj18_1p_cQj38_0p_cQj11_0p_cjj31_0p_ctu8_0p_ctd8_0p_ctj8_0p_cQu8_0p_cQd8_0p_ctu1_0p_ctd1_0p_ctj1_0p_cQu1_0p_cQd1_1p'> +6.1139206e+01 </wgt>
<wgt id='ctGRe_0p_cQj18_0p_cQj38_2p_cQj11_0p_cjj31_0p_ctu8_0p_ctd8_0p_ctj8_0p_cQu8_0p_cQd8_0p_ctu1_0p_ctd1_0p_ctj1_0p_cQu1_0p_cQd1_0p'> +6.1139206e+01 </wgt>
<wgt id='ctGRe_0p_cQj18_0p_cQj38_1p_cQj11_1p_cjj31_0p_ctu8_0p_ctd8_0p_ctj8_0p_cQu8_0p_cQd8_0p_ctu1_0p_ctd1_0p_ctj1_0p_cQu1_0p_cQd1_0p'> +6.1139206e+01 </wgt>
<wgt id='ctGRe_0p_cQj18_0p_cQj38_1p_cQj11_0p_cjj31_1p_ctu8_0p_ctd8_0p_ctj8_0p_cQu8_0p_cQd8_0p_ctu1_0p_ctd1_0p_ctj1_0p_cQu1_0p_cQd1_0p'> +6.1139206e+01 </wgt>
<wgt id='ctGRe_0p_cQj18_0p_cQj38_1p_cQj11_0p_cjj31_0p_ctu8_1p_ctd8_0p_ctj8_0p_cQu8_0p_cQd8_0p_ctu1_0p_ctd1_0p_ctj1_0p_cQu1_0p_cQd1_0p'> +6.1139206e+01 </wgt>
<wgt id='ctGRe_0p_cQj18_0p_cQj38_1p_cQj11_0p_cjj31_0p_ctu8_0p_ctd8_1p_ctj8_0p_cQu8_0p_cQd8_0p_ctu1_0p_ctd1_0p_ctj1_0p_cQu1_0p_cQd1_0p'> +6.1139206e+01 </wgt>
<wgt id='ctGRe_0p_cQj18_0p_cQj38_1p_cQj11_0p_cjj31_0p_ctu8_0p_ctd8_0p_ctj8_1p_cQu8_0p_cQd8_0p_ctu1_0p_ctd1_0p_ctj1_0p_cQu1_0p_cQd1_0p'> +6.1139206e+01 </wgt>
<wgt id='ctGRe_0p_cQj18_0p_cQj38_1p_cQj11_0p_cjj31_0p_ctu8_0p_ctd8_0p_ctj8_0p_cQu8_1p_cQd8_0p_ctu1_0p_ctd1_0p_ctj1_0p_cQu1_0p_cQd1_0p'> +6.1139206e+01 </wgt>
<wgt id='ctGRe_0p_cQj18_0p_cQj38_1p_cQj11_0p_cjj31_0p_ctu8_0p_ctd8_0p_ctj8_0p_cQu8_0p_cQd8_1p_ctu1_0p_ctd1_0p_ctj1_0p_cQu1_0p_cQd1_0p'> +6.1139206e+01 </wgt>
<wgt id='ctGRe_0p_cQj18_0p_cQj38_1p_cQj11_0p_cjj31_0p_ctu8_0p_ctd8_0p_ctj8_0p_cQu8_0p_cQd8_0p_ctu1_1p_ctd1_0p_ctj1_0p_cQu1_0p_cQd1_0p'> +6.1139206e+01 </wgt>
<wgt id='ctGRe_0p_cQj18_0p_cQj38_1p_cQj11_0p_cjj31_0p_ctu8_0p_ctd8_0p_ctj8_0p_cQu8_0p_cQd8_0p_ctu1_0p_ctd1_1p_ctj1_0p_cQu1_0p_cQd1_0p'> +6.1139206e+01 </wgt>
<wgt id='ctGRe_0p_cQj18_0p_cQj38_1p_cQj11_0p_cjj31_0p_ctu8_0p_ctd8_0p_ctj8_0p_cQu8_0p_cQd8_0p_ctu1_0p_ctd1_0p_ctj1_1p_cQu1_0p_cQd1_0p'> +6.1139206e+01 </wgt>
<wgt id='ctGRe_0p_cQj18_0p_cQj38_1p_cQj11_0p_cjj31_0p_ctu8_0p_ctd8_0p_ctj8_0p_cQu8_0p_cQd8_0p_ctu1_0p_ctd1_0p_ctj1_0p_cQu1_1p_cQd1_0p'> +6.1139206e+01 </wgt>
<wgt id='ctGRe_0p_cQj18_0p_cQj38_1p_cQj11_0p_cjj31_0p_ctu8_0p_ctd8_0p_ctj8_0p_cQu8_0p_cQd8_0p_ctu1_0p_ctd1_0p_ctj1_0p_cQu1_0p_cQd1_1p'> +6.1139206e+01 </wgt>
<wgt id='ctGRe_0p_cQj18_0p_cQj38_0p_cQj11_2p_cjj31_0p_ctu8_0p_ctd8_0p_ctj8_0p_cQu8_0p_cQd8_0p_ctu1_0p_ctd1_0p_ctj1_0p_cQu1_0p_cQd1_0p'> +6.1139206e+01 </wgt>
<wgt id='ctGRe_0p_cQj18_0p_cQj38_0p_cQj11_1p_cjj31_1p_ctu8_0p_ctd8_0p_ctj8_0p_cQu8_0p_cQd8_0p_ctu1_0p_ctd1_0p_ctj1_0p_cQu1_0p_cQd1_0p'> +6.1139206e+01 </wgt>
<wgt id='ctGRe_0p_cQj18_0p_cQj38_0p_cQj11_1p_cjj31_0p_ctu8_1p_ctd8_0p_ctj8_0p_cQu8_0p_cQd8_0p_ctu1_0p_ctd1_0p_ctj1_0p_cQu1_0p_cQd1_0p'> +6.1139206e+01 </wgt>
<wgt id='ctGRe_0p_cQj18_0p_cQj38_0p_cQj11_1p_cjj31_0p_ctu8_0p_ctd8_1p_ctj8_0p_cQu8_0p_cQd8_0p_ctu1_0p_ctd1_0p_ctj1_0p_cQu1_0p_cQd1_0p'> +6.1139206e+01 </wgt>
<wgt id='ctGRe_0p_cQj18_0p_cQj38_0p_cQj11_1p_cjj31_0p_ctu8_0p_ctd8_0p_ctj8_1p_cQu8_0p_cQd8_0p_ctu1_0p_ctd1_0p_ctj1_0p_cQu1_0p_cQd1_0p'> +6.1139206e+01 </wgt>
<wgt id='ctGRe_0p_cQj18_0p_cQj38_0p_cQj11_1p_cjj31_0p_ctu8_0p_ctd8_0p_ctj8_0p_cQu8_1p_cQd8_0p_ctu1_0p_ctd1_0p_ctj1_0p_cQu1_0p_cQd1_0p'> +6.1139206e+01 </wgt>
<wgt id='ctGRe_0p_cQj18_0p_cQj38_0p_cQj11_1p_cjj31_0p_ctu8_0p_ctd8_0p_ctj8_0p_cQu8_0p_cQd8_1p_ctu1_0p_ctd1_0p_ctj1_0p_cQu1_0p_cQd1_0p'> +6.1139206e+01 </wgt>
<wgt id='ctGRe_0p_cQj18_0p_cQj38_0p_cQj11_1p_cjj31_0p_ctu8_0p_ctd8_0p_ctj8_0p_cQu8_0p_cQd8_0p_ctu1_1p_ctd1_0p_ctj1_0p_cQu1_0p_cQd1_0p'> +6.1139206e+01 </wgt>
<wgt id='ctGRe_0p_cQj18_0p_cQj38_0p_cQj11_1p_cjj31_0p_ctu8_0p_ctd8_0p_ctj8_0p_cQu8_0p_cQd8_0p_ctu1_0p_ctd1_1p_ctj1_0p_cQu1_0p_cQd1_0p'> +6.1139206e+01 </wgt>
<wgt id='ctGRe_0p_cQj18_0p_cQj38_0p_cQj11_1p_cjj31_0p_ctu8_0p_ctd8_0p_ctj8_0p_cQu8_0p_cQd8_0p_ctu1_0p_ctd1_0p_ctj1_1p_cQu1_0p_cQd1_0p'> +6.1139206e+01 </wgt>
<wgt id='ctGRe_0p_cQj18_0p_cQj38_0p_cQj11_1p_cjj31_0p_ctu8_0p_ctd8_0p_ctj8_0p_cQu8_0p_cQd8_0p_ctu1_0p_ctd1_0p_ctj1_0p_cQu1_1p_cQd1_0p'> +6.1139206e+01 </wgt>
<wgt id='ctGRe_0p_cQj18_0p_cQj38_0p_cQj11_1p_cjj31_0p_ctu8_0p_ctd8_0p_ctj8_0p_cQu8_0p_cQd8_0p_ctu1_0p_ctd1_0p_ctj1_0p_cQu1_0p_cQd1_1p'> +6.1139206e+01 </wgt>
<wgt id='ctGRe_0p_cQj18_0p_cQj38_0p_cQj11_0p_cjj31_2p_ctu8_0p_ctd8_0p_ctj8_0p_cQu8_0p_cQd8_0p_ctu1_0p_ctd1_0p_ctj1_0p_cQu1_0p_cQd1_0p'> +6.1139206e+01 </wgt>
<wgt id='ctGRe_0p_cQj18_0p_cQj38_0p_cQj11_0p_cjj31_1p_ctu8_1p_ctd8_0p_ctj8_0p_cQu8_0p_cQd8_0p_ctu1_0p_ctd1_0p_ctj1_0p_cQu1_0p_cQd1_0p'> +6.1139206e+01 </wgt>
<wgt id='ctGRe_0p_cQj18_0p_cQj38_0p_cQj11_0p_cjj31_1p_ctu8_0p_ctd8_1p_ctj8_0p_cQu8_0p_cQd8_0p_ctu1_0p_ctd1_0p_ctj1_0p_cQu1_0p_cQd1_0p'> +6.1139206e+01 </wgt>
<wgt id='ctGRe_0p_cQj18_0p_cQj38_0p_cQj11_0p_cjj31_1p_ctu8_0p_ctd8_0p_ctj8_1p_cQu8_0p_cQd8_0p_ctu1_0p_ctd1_0p_ctj1_0p_cQu1_0p_cQd1_0p'> +6.1139206e+01 </wgt>
<wgt id='ctGRe_0p_cQj18_0p_cQj38_0p_cQj11_0p_cjj31_1p_ctu8_0p_ctd8_0p_ctj8_0p_cQu8_1p_cQd8_0p_ctu1_0p_ctd1_0p_ctj1_0p_cQu1_0p_cQd1_0p'> +6.1139206e+01 </wgt>
<wgt id='ctGRe_0p_cQj18_0p_cQj38_0p_cQj11_0p_cjj31_1p_ctu8_0p_ctd8_0p_ctj8_0p_cQu8_0p_cQd8_1p_ctu1_0p_ctd1_0p_ctj1_0p_cQu1_0p_cQd1_0p'> +6.1139206e+01 </wgt>
<wgt id='ctGRe_0p_cQj18_0p_cQj38_0p_cQj11_0p_cjj31_1p_ctu8_0p_ctd8_0p_ctj8_0p_cQu8_0p_cQd8_0p_ctu1_1p_ctd1_0p_ctj1_0p_cQu1_0p_cQd1_0p'> +6.1139206e+01 </wgt>
<wgt id='ctGRe_0p_cQj18_0p_cQj38_0p_cQj11_0p_cjj31_1p_ctu8_0p_ctd8_0p_ctj8_0p_cQu8_0p_cQd8_0p_ctu1_0p_ctd1_1p_ctj1_0p_cQu1_0p_cQd1_0p'> +6.1139206e+01 </wgt>
<wgt id='ctGRe_0p_cQj18_0p_cQj38_0p_cQj11_0p_cjj31_1p_ctu8_0p_ctd8_0p_ctj8_0p_cQu8_0p_cQd8_0p_ctu1_0p_ctd1_0p_ctj1_1p_cQu1_0p_cQd1_0p'> +6.1139206e+01 </wgt>
<wgt id='ctGRe_0p_cQj18_0p_cQj38_0p_cQj11_0p_cjj31_1p_ctu8_0p_ctd8_0p_ctj8_0p_cQu8_0p_cQd8_0p_ctu1_0p_ctd1_0p_ctj1_0p_cQu1_1p_cQd1_0p'> +6.1139206e+01 </wgt>
<wgt id='ctGRe_0p_cQj18_0p_cQj38_0p_cQj11_0p_cjj31_1p_ctu8_0p_ctd8_0p_ctj8_0p_cQu8_0p_cQd8_0p_ctu1_0p_ctd1_0p_ctj1_0p_cQu1_0p_cQd1_1p'> +6.1139206e+01 </wgt>
<wgt id='ctGRe_0p_cQj18_0p_cQj38_0p_cQj11_0p_cjj31_0p_ctu8_2p_ctd8_0p_ctj8_0p_cQu8_0p_cQd8_0p_ctu1_0p_ctd1_0p_ctj1_0p_cQu1_0p_cQd1_0p'> +6.1139206e+01 </wgt>
<wgt id='ctGRe_0p_cQj18_0p_cQj38_0p_cQj11_0p_cjj31_0p_ctu8_1p_ctd8_1p_ctj8_0p_cQu8_0p_cQd8_0p_ctu1_0p_ctd1_0p_ctj1_0p_cQu1_0p_cQd1_0p'> +6.1139206e+01 </wgt>
<wgt id='ctGRe_0p_cQj18_0p_cQj38_0p_cQj11_0p_cjj31_0p_ctu8_1p_ctd8_0p_ctj8_1p_cQu8_0p_cQd8_0p_ctu1_0p_ctd1_0p_ctj1_0p_cQu1_0p_cQd1_0p'> +6.1139206e+01 </wgt>
<wgt id='ctGRe_0p_cQj18_0p_cQj38_0p_cQj11_0p_cjj31_0p_ctu8_1p_ctd8_0p_ctj8_0p_cQu8_1p_cQd8_0p_ctu1_0p_ctd1_0p_ctj1_0p_cQu1_0p_cQd1_0p'> +6.1139206e+01 </wgt>
<wgt id='ctGRe_0p_cQj18_0p_cQj38_0p_cQj11_0p_cjj31_0p_ctu8_1p_ctd8_0p_ctj8_0p_cQu8_0p_cQd8_1p_ctu1_0p_ctd1_0p_ctj1_0p_cQu1_0p_cQd1_0p'> +6.1139206e+01 </wgt>
<wgt id='ctGRe_0p_cQj18_0p_cQj38_0p_cQj11_0p_cjj31_0p_ctu8_1p_ctd8_0p_ctj8_0p_cQu8_0p_cQd8_0p_ctu1_1p_ctd1_0p_ctj1_0p_cQu1_0p_cQd1_0p'> +6.1139206e+01 </wgt>
<wgt id='ctGRe_0p_cQj18_0p_cQj38_0p_cQj11_0p_cjj31_0p_ctu8_1p_ctd8_0p_ctj8_0p_cQu8_0p_cQd8_0p_ctu1_0p_ctd1_1p_ctj1_0p_cQu1_0p_cQd1_0p'> +6.1139206e+01 </wgt>
<wgt id='ctGRe_0p_cQj18_0p_cQj38_0p_cQj11_0p_cjj31_0p_ctu8_1p_ctd8_0p_ctj8_0p_cQu8_0p_cQd8_0p_ctu1_0p_ctd1_0p_ctj1_1p_cQu1_0p_cQd1_0p'> +6.1139206e+01 </wgt>
<wgt id='ctGRe_0p_cQj18_0p_cQj38_0p_cQj11_0p_cjj31_0p_ctu8_1p_ctd8_0p_ctj8_0p_cQu8_0p_cQd8_0p_ctu1_0p_ctd1_0p_ctj1_0p_cQu1_1p_cQd1_0p'> +6.1139206e+01 </wgt>
<wgt id='ctGRe_0p_cQj18_0p_cQj38_0p_cQj11_0p_cjj31_0p_ctu8_1p_ctd8_0p_ctj8_0p_cQu8_0p_cQd8_0p_ctu1_0p_ctd1_0p_ctj1_0p_cQu1_0p_cQd1_1p'> +6.1139206e+01 </wgt>
<wgt id='ctGRe_0p_cQj18_0p_cQj38_0p_cQj11_0p_cjj31_0p_ctu8_0p_ctd8_2p_ctj8_0p_cQu8_0p_cQd8_0p_ctu1_0p_ctd1_0p_ctj1_0p_cQu1_0p_cQd1_0p'> +6.1139206e+01 </wgt>
<wgt id='ctGRe_0p_cQj18_0p_cQj38_0p_cQj11_0p_cjj31_0p_ctu8_0p_ctd8_1p_ctj8_1p_cQu8_0p_cQd8_0p_ctu1_0p_ctd1_0p_ctj1_0p_cQu1_0p_cQd1_0p'> +6.1139206e+01 </wgt>
<wgt id='ctGRe_0p_cQj18_0p_cQj38_0p_cQj11_0p_cjj31_0p_ctu8_0p_ctd8_1p_ctj8_0p_cQu8_1p_cQd8_0p_ctu1_0p_ctd1_0p_ctj1_0p_cQu1_0p_cQd1_0p'> +6.1139206e+01 </wgt>
<wgt id='ctGRe_0p_cQj18_0p_cQj38_0p_cQj11_0p_cjj31_0p_ctu8_0p_ctd8_1p_ctj8_0p_cQu8_0p_cQd8_1p_ctu1_0p_ctd1_0p_ctj1_0p_cQu1_0p_cQd1_0p'> +6.1139206e+01 </wgt>
<wgt id='ctGRe_0p_cQj18_0p_cQj38_0p_cQj11_0p_cjj31_0p_ctu8_0p_ctd8_1p_ctj8_0p_cQu8_0p_cQd8_0p_ctu1_1p_ctd1_0p_ctj1_0p_cQu1_0p_cQd1_0p'> +6.1139206e+01 </wgt>
<wgt id='ctGRe_0p_cQj18_0p_cQj38_0p_cQj11_0p_cjj31_0p_ctu8_0p_ctd8_1p_ctj8_0p_cQu8_0p_cQd8_0p_ctu1_0p_ctd1_1p_ctj1_0p_cQu1_0p_cQd1_0p'> +6.1139206e+01 </wgt>
<wgt id='ctGRe_0p_cQj18_0p_cQj38_0p_cQj11_0p_cjj31_0p_ctu8_0p_ctd8_1p_ctj8_0p_cQu8_0p_cQd8_0p_ctu1_0p_ctd1_0p_ctj1_1p_cQu1_0p_cQd1_0p'> +6.1139206e+01 </wgt>
<wgt id='ctGRe_0p_cQj18_0p_cQj38_0p_cQj11_0p_cjj31_0p_ctu8_0p_ctd8_1p_ctj8_0p_cQu8_0p_cQd8_0p_ctu1_0p_ctd1_0p_ctj1_0p_cQu1_1p_cQd1_0p'> +6.1139206e+01 </wgt>
<wgt id='ctGRe_0p_cQj18_0p_cQj38_0p_cQj11_0p_cjj31_0p_ctu8_0p_ctd8_1p_ctj8_0p_cQu8_0p_cQd8_0p_ctu1_0p_ctd1_0p_ctj1_0p_cQu1_0p_cQd1_1p'> +6.1139206e+01 </wgt>
<wgt id='ctGRe_0p_cQj18_0p_cQj38_0p_cQj11_0p_cjj31_0p_ctu8_0p_ctd8_0p_ctj8_2p_cQu8_0p_cQd8_0p_ctu1_0p_ctd1_0p_ctj1_0p_cQu1_0p_cQd1_0p'> +6.1139206e+01 </wgt>
<wgt id='ctGRe_0p_cQj18_0p_cQj38_0p_cQj11_0p_cjj31_0p_ctu8_0p_ctd8_0p_ctj8_1p_cQu8_1p_cQd8_0p_ctu1_0p_ctd1_0p_ctj1_0p_cQu1_0p_cQd1_0p'> +6.1139206e+01 </wgt>
<wgt id='ctGRe_0p_cQj18_0p_cQj38_0p_cQj11_0p_cjj31_0p_ctu8_0p_ctd8_0p_ctj8_1p_cQu8_0p_cQd8_1p_ctu1_0p_ctd1_0p_ctj1_0p_cQu1_0p_cQd1_0p'> +6.1139206e+01 </wgt>
<wgt id='ctGRe_0p_cQj18_0p_cQj38_0p_cQj11_0p_cjj31_0p_ctu8_0p_ctd8_0p_ctj8_1p_cQu8_0p_cQd8_0p_ctu1_1p_ctd1_0p_ctj1_0p_cQu1_0p_cQd1_0p'> +6.1139206e+01 </wgt>
<wgt id='ctGRe_0p_cQj18_0p_cQj38_0p_cQj11_0p_cjj31_0p_ctu8_0p_ctd8_0p_ctj8_1p_cQu8_0p_cQd8_0p_ctu1_0p_ctd1_1p_ctj1_0p_cQu1_0p_cQd1_0p'> +6.1139206e+01 </wgt>
<wgt id='ctGRe_0p_cQj18_0p_cQj38_0p_cQj11_0p_cjj31_0p_ctu8_0p_ctd8_0p_ctj8_1p_cQu8_0p_cQd8_0p_ctu1_0p_ctd1_0p_ctj1_1p_cQu1_0p_cQd1_0p'> +6.1139206e+01 </wgt>
<wgt id='ctGRe_0p_cQj18_0p_cQj38_0p_cQj11_0p_cjj31_0p_ctu8_0p_ctd8_0p_ctj8_1p_cQu8_0p_cQd8_0p_ctu1_0p_ctd1_0p_ctj1_0p_cQu1_1p_cQd1_0p'> +6.1139206e+01 </wgt>
<wgt id='ctGRe_0p_cQj18_0p_cQj38_0p_cQj11_0p_cjj31_0p_ctu8_0p_ctd8_0p_ctj8_1p_cQu8_0p_cQd8_0p_ctu1_0p_ctd1_0p_ctj1_0p_cQu1_0p_cQd1_1p'> +6.1139206e+01 </wgt>
<wgt id='ctGRe_0p_cQj18_0p_cQj38_0p_cQj11_0p_cjj31_0p_ctu8_0p_ctd8_0p_ctj8_0p_cQu8_2p_cQd8_0p_ctu1_0p_ctd1_0p_ctj1_0p_cQu1_0p_cQd1_0p'> +6.1139206e+01 </wgt>
<wgt id='ctGRe_0p_cQj18_0p_cQj38_0p_cQj11_0p_cjj31_0p_ctu8_0p_ctd8_0p_ctj8_0p_cQu8_1p_cQd8_1p_ctu1_0p_ctd1_0p_ctj1_0p_cQu1_0p_cQd1_0p'> +6.1139206e+01 </wgt>
<wgt id='ctGRe_0p_cQj18_0p_cQj38_0p_cQj11_0p_cjj31_0p_ctu8_0p_ctd8_0p_ctj8_0p_cQu8_1p_cQd8_0p_ctu1_1p_ctd1_0p_ctj1_0p_cQu1_0p_cQd1_0p'> +6.1139206e+01 </wgt>
<wgt id='ctGRe_0p_cQj18_0p_cQj38_0p_cQj11_0p_cjj31_0p_ctu8_0p_ctd8_0p_ctj8_0p_cQu8_1p_cQd8_0p_ctu1_0p_ctd1_1p_ctj1_0p_cQu1_0p_cQd1_0p'> +6.1139206e+01 </wgt>
<wgt id='ctGRe_0p_cQj18_0p_cQj38_0p_cQj11_0p_cjj31_0p_ctu8_0p_ctd8_0p_ctj8_0p_cQu8_1p_cQd8_0p_ctu1_0p_ctd1_0p_ctj1_1p_cQu1_0p_cQd1_0p'> +6.1139206e+01 </wgt>
<wgt id='ctGRe_0p_cQj18_0p_cQj38_0p_cQj11_0p_cjj31_0p_ctu8_0p_ctd8_0p_ctj8_0p_cQu8_1p_cQd8_0p_ctu1_0p_ctd1_0p_ctj1_0p_cQu1_1p_cQd1_0p'> +6.1139206e+01 </wgt>
<wgt id='ctGRe_0p_cQj18_0p_cQj38_0p_cQj11_0p_cjj31_0p_ctu8_0p_ctd8_0p_ctj8_0p_cQu8_1p_cQd8_0p_ctu1_0p_ctd1_0p_ctj1_0p_cQu1_0p_cQd1_1p'> +6.1139206e+01 </wgt>
<wgt id='ctGRe_0p_cQj18_0p_cQj38_0p_cQj11_0p_cjj31_0p_ctu8_0p_ctd8_0p_ctj8_0p_cQu8_0p_cQd8_2p_ctu1_0p_ctd1_0p_ctj1_0p_cQu1_0p_cQd1_0p'> +6.1139206e+01 </wgt>
<wgt id='ctGRe_0p_cQj18_0p_cQj38_0p_cQj11_0p_cjj31_0p_ctu8_0p_ctd8_0p_ctj8_0p_cQu8_0p_cQd8_1p_ctu1_1p_ctd1_0p_ctj1_0p_cQu1_0p_cQd1_0p'> +6.1139206e+01 </wgt>
<wgt id='ctGRe_0p_cQj18_0p_cQj38_0p_cQj11_0p_cjj31_0p_ctu8_0p_ctd8_0p_ctj8_0p_cQu8_0p_cQd8_1p_ctu1_0p_ctd1_1p_ctj1_0p_cQu1_0p_cQd1_0p'> +6.1139206e+01 </wgt>
<wgt id='ctGRe_0p_cQj18_0p_cQj38_0p_cQj11_0p_cjj31_0p_ctu8_0p_ctd8_0p_ctj8_0p_cQu8_0p_cQd8_1p_ctu1_0p_ctd1_0p_ctj1_1p_cQu1_0p_cQd1_0p'> +6.1139206e+01 </wgt>
<wgt id='ctGRe_0p_cQj18_0p_cQj38_0p_cQj11_0p_cjj31_0p_ctu8_0p_ctd8_0p_ctj8_0p_cQu8_0p_cQd8_1p_ctu1_0p_ctd1_0p_ctj1_0p_cQu1_1p_cQd1_0p'> +6.1139206e+01 </wgt>
<wgt id='ctGRe_0p_cQj18_0p_cQj38_0p_cQj11_0p_cjj31_0p_ctu8_0p_ctd8_0p_ctj8_0p_cQu8_0p_cQd8_1p_ctu1_0p_ctd1_0p_ctj1_0p_cQu1_0p_cQd1_1p'> +6.1139206e+01 </wgt>
<wgt id='ctGRe_0p_cQj18_0p_cQj38_0p_cQj11_0p_cjj31_0p_ctu8_0p_ctd8_0p_ctj8_0p_cQu8_0p_cQd8_0p_ctu1_2p_ctd1_0p_ctj1_0p_cQu1_0p_cQd1_0p'> +6.1139206e+01 </wgt>
<wgt id='ctGRe_0p_cQj18_0p_cQj38_0p_cQj11_0p_cjj31_0p_ctu8_0p_ctd8_0p_ctj8_0p_cQu8_0p_cQd8_0p_ctu1_1p_ctd1_1p_ctj1_0p_cQu1_0p_cQd1_0p'> +6.1139206e+01 </wgt>
<wgt id='ctGRe_0p_cQj18_0p_cQj38_0p_cQj11_0p_cjj31_0p_ctu8_0p_ctd8_0p_ctj8_0p_cQu8_0p_cQd8_0p_ctu1_1p_ctd1_0p_ctj1_1p_cQu1_0p_cQd1_0p'> +6.1139206e+01 </wgt>
<wgt id='ctGRe_0p_cQj18_0p_cQj38_0p_cQj11_0p_cjj31_0p_ctu8_0p_ctd8_0p_ctj8_0p_cQu8_0p_cQd8_0p_ctu1_1p_ctd1_0p_ctj1_0p_cQu1_1p_cQd1_0p'> +6.1139206e+01 </wgt>
<wgt id='ctGRe_0p_cQj18_0p_cQj38_0p_cQj11_0p_cjj31_0p_ctu8_0p_ctd8_0p_ctj8_0p_cQu8_0p_cQd8_0p_ctu1_1p_ctd1_0p_ctj1_0p_cQu1_0p_cQd1_1p'> +6.1139206e+01 </wgt>
<wgt id='ctGRe_0p_cQj18_0p_cQj38_0p_cQj11_0p_cjj31_0p_ctu8_0p_ctd8_0p_ctj8_0p_cQu8_0p_cQd8_0p_ctu1_0p_ctd1_2p_ctj1_0p_cQu1_0p_cQd1_0p'> +6.1139206e+01 </wgt>
<wgt id='ctGRe_0p_cQj18_0p_cQj38_0p_cQj11_0p_cjj31_0p_ctu8_0p_ctd8_0p_ctj8_0p_cQu8_0p_cQd8_0p_ctu1_0p_ctd1_1p_ctj1_1p_cQu1_0p_cQd1_0p'> +6.1139206e+01 </wgt>
<wgt id='ctGRe_0p_cQj18_0p_cQj38_0p_cQj11_0p_cjj31_0p_ctu8_0p_ctd8_0p_ctj8_0p_cQu8_0p_cQd8_0p_ctu1_0p_ctd1_1p_ctj1_0p_cQu1_1p_cQd1_0p'> +6.1139206e+01 </wgt>
<wgt id='ctGRe_0p_cQj18_0p_cQj38_0p_cQj11_0p_cjj31_0p_ctu8_0p_ctd8_0p_ctj8_0p_cQu8_0p_cQd8_0p_ctu1_0p_ctd1_1p_ctj1_0p_cQu1_0p_cQd1_1p'> +6.1139206e+01 </wgt>
<wgt id='ctGRe_0p_cQj18_0p_cQj38_0p_cQj11_0p_cjj31_0p_ctu8_0p_ctd8_0p_ctj8_0p_cQu8_0p_cQd8_0p_ctu1_0p_ctd1_0p_ctj1_2p_cQu1_0p_cQd1_0p'> +6.1139206e+01 </wgt>
<wgt id='ctGRe_0p_cQj18_0p_cQj38_0p_cQj11_0p_cjj31_0p_ctu8_0p_ctd8_0p_ctj8_0p_cQu8_0p_cQd8_0p_ctu1_0p_ctd1_0p_ctj1_1p_cQu1_1p_cQd1_0p'> +6.1139206e+01 </wgt>
<wgt id='ctGRe_0p_cQj18_0p_cQj38_0p_cQj11_0p_cjj31_0p_ctu8_0p_ctd8_0p_ctj8_0p_cQu8_0p_cQd8_0p_ctu1_0p_ctd1_0p_ctj1_1p_cQu1_0p_cQd1_1p'> +6.1139206e+01 </wgt>
<wgt id='ctGRe_0p_cQj18_0p_cQj38_0p_cQj11_0p_cjj31_0p_ctu8_0p_ctd8_0p_ctj8_0p_cQu8_0p_cQd8_0p_ctu1_0p_ctd1_0p_ctj1_0p_cQu1_2p_cQd1_0p'> +6.1139206e+01 </wgt>
<wgt id='ctGRe_0p_cQj18_0p_cQj38_0p_cQj11_0p_cjj31_0p_ctu8_0p_ctd8_0p_ctj8_0p_cQu8_0p_cQd8_0p_ctu1_0p_ctd1_0p_ctj1_0p_cQu1_1p_cQd1_1p'> +6.1139206e+01 </wgt>
<wgt id='ctGRe_0p_cQj18_0p_cQj38_0p_cQj11_0p_cjj31_0p_ctu8_0p_ctd8_0p_ctj8_0p_cQu8_0p_cQd8_0p_ctu1_0p_ctd1_0p_ctj1_0p_cQu1_0p_cQd1_2p'> +6.1139206e+01 </wgt>
<wgt id='1001'> +6.1139206e+01 </wgt>
<wgt id='1002'> +4.8061571e+01 </wgt>
<wgt id='1003'> +4.8059591e+01 </wgt>
<wgt id='1004'> +6.2881645e+01 </wgt>
<wgt id='1005'> +3.8199677e+01 </wgt>
<wgt id='1006'> +5.1339090e+01 </wgt>
<wgt id='1007'> +4.0893822e+01 </wgt>
<wgt id='1008'> +4.0892226e+01 </wgt>
<wgt id='1009'> +5.2716826e+01 </wgt>
<wgt id='1010'> +3.2878458e+01 </wgt>
<wgt id='1011'> +7.4096171e+01 </wgt>
<wgt id='1012'> +5.7328913e+01 </wgt>
<wgt id='1013'> +5.7326404e+01 </wgt>
<wgt id='1014'> +7.6358767e+01 </wgt>
<wgt id='1015'> +4.4947743e+01 </wgt>
<wgt id='1016'> +5.5760656e+01 </wgt>
<wgt id='1017'> +4.3978302e+01 </wgt>
<wgt id='1018'> +4.3976518e+01 </wgt>
<wgt id='1019'> +5.7326404e+01 </wgt>
<wgt id='1020'> +3.5083498e+01 </wgt>
<wgt id='1021'> +4.6822678e+01 </wgt>
<wgt id='1022'> +3.7419519e+01 </wgt>
<wgt id='1023'> +3.7418082e+01 </wgt>
<wgt id='1024'> +4.8059591e+01 </wgt>
<wgt id='1025'> +3.0196364e+01 </wgt>
<wgt id='1026'> +6.7577768e+01 </wgt>
<wgt id='1027'> +5.2458299e+01 </wgt>
<wgt id='1028'> +5.2456037e+01 </wgt>
<wgt id='1029'> +6.9612899e+01 </wgt>
<wgt id='1030'> +4.1281084e+01 </wgt>
<wgt id='1031'> +6.7290178e+01 </wgt>
<wgt id='1032'> +5.2719033e+01 </wgt>
<wgt id='1033'> +5.2716826e+01 </wgt>
<wgt id='1034'> +6.9229552e+01 </wgt>
<wgt id='1035'> +4.1760250e+01 </wgt>
<wgt id='1036'> +5.6504112e+01 </wgt>
<wgt id='1037'> +4.4856685e+01 </wgt>
<wgt id='1038'> +4.4854905e+01 </wgt>
<wgt id='1039'> +5.8038595e+01 </wgt>
<wgt id='1040'> +3.5943044e+01 </wgt>
<wgt id='1041'> +8.1550692e+01 </wgt>
<wgt id='1042'> +6.2884437e+01 </wgt>
<wgt id='1043'> +6.2881645e+01 </wgt>
<wgt id='1044'> +8.4067191e+01 </wgt>
<wgt id='1045'> +4.9137300e+01 </wgt>
<wgt id='1046'> +7.4480109e+01 </wgt>
<wgt id='1047'> +5.1889968e+01 </wgt>
<wgt id='1048'> +6.1139206e+01 </wgt>
<wgt id='1049'> +6.1067860e+01 </wgt>
<wgt id='1050'> +6.1017120e+01 </wgt>
<wgt id='1051'> +6.1294406e+01 </wgt>
<wgt id='1052'> +6.1240469e+01 </wgt>
<wgt id='1053'> +6.1048920e+01 </wgt>
<wgt id='1054'> +6.1186422e+01 </wgt>
<wgt id='1055'> +6.0948217e+01 </wgt>
<wgt id='1056'> +6.1096006e+01 </wgt>
<wgt id='1057'> +6.1065692e+01 </wgt>
<wgt id='1058'> +6.1124278e+01 </wgt>
<wgt id='1059'> +6.1369620e+01 </wgt>
<wgt id='1060'> +6.0977889e+01 </wgt>
<wgt id='1061'> +6.1316504e+01 </wgt>
<wgt id='1062'> +6.1424807e+01 </wgt>
<wgt id='1063'> +6.1347438e+01 </wgt>
<wgt id='1064'> +6.1255823e+01 </wgt>
<wgt id='1065'> +6.1483391e+01 </wgt>
<wgt id='1066'> +6.0740527e+01 </wgt>
<wgt id='1067'> +6.0807955e+01 </wgt>
<wgt id='1068'> +6.1248280e+01 </wgt>
<wgt id='1069'> +6.0723631e+01 </wgt>
<wgt id='1070'> +6.1298634e+01 </wgt>
<wgt id='1071'> +6.1085545e+01 </wgt>
<wgt id='1072'> +6.1040824e+01 </wgt>
<wgt id='1073'> +6.1039447e+01 </wgt>
<wgt id='1074'> +6.1112933e+01 </wgt>
<wgt id='1075'> +6.0799718e+01 </wgt>
<wgt id='1076'> +6.1124092e+01 </wgt>
<wgt id='1077'> +6.0714261e+01 </wgt>
<wgt id='1078'> +6.1131107e+01 </wgt>
<wgt id='1079'> +6.0869268e+01 </wgt>
<wgt id='1080'> +6.1278065e+01 </wgt>
<wgt id='1081'> +6.1041860e+01 </wgt>
<wgt id='1082'> +6.1027733e+01 </wgt>
<wgt id='1083'> +6.1109466e+01 </wgt>
<wgt id='1084'> +6.1340819e+01 </wgt>
<wgt id='1085'> +6.1123240e+01 </wgt>
<wgt id='1086'> +6.1048503e+01 </wgt>
<wgt id='1087'> +6.1203654e+01 </wgt>
<wgt id='1088'> +6.1025524e+01 </wgt>
<wgt id='1089'> +6.1150323e+01 </wgt>
<wgt id='1090'> +6.1158998e+01 </wgt>
<wgt id='1091'> +6.1125595e+01 </wgt>
<wgt id='1092'> +6.1209718e+01 </wgt>
<wgt id='1093'> +6.1130682e+01 </wgt>
<wgt id='1094'> +6.1131931e+01 </wgt>
<wgt id='1095'> +6.1120007e+01 </wgt>
<wgt id='1096'> +6.1093311e+01 </wgt>
<wgt id='1097'> +6.1080042e+01 </wgt>
<wgt id='1098'> +6.1119712e+01 </wgt>
<wgt id='1099'> +6.1161463e+01 </wgt>
<wgt id='1100'> +6.1209515e+01 </wgt>
<wgt id='1101'> +6.1133736e+01 </wgt>
<wgt id='1102'> +6.1127312e+01 </wgt>
<wgt id='1103'> +6.1153327e+01 </wgt>
<wgt id='1104'> +6.1086001e+01 </wgt>
<wgt id='1105'> +6.1163875e+01 </wgt>
<wgt id='1106'> +6.1148000e+01 </wgt>
<wgt id='1107'> +6.1133801e+01 </wgt>
<wgt id='1108'> +6.1135044e+01 </wgt>
<wgt id='1109'> +6.1135208e+01 </wgt>
<wgt id='1110'> +6.1195271e+01 </wgt>
<wgt id='1111'> +6.1166068e+01 </wgt>
<wgt id='1112'> +6.1137816e+01 </wgt>
<wgt id='1113'> +6.1207296e+01 </wgt>
<wgt id='1114'> +6.1138114e+01 </wgt>
<wgt id='1115'> +6.1163243e+01 </wgt>
<wgt id='1116'> +6.1164289e+01 </wgt>
<wgt id='1117'> +6.1126409e+01 </wgt>
<wgt id='1118'> +6.1152404e+01 </wgt>
<wgt id='1119'> +6.1142322e+01 </wgt>
<wgt id='1120'> +6.1149369e+01 </wgt>
<wgt id='1121'> +6.1156663e+01 </wgt>
<wgt id='1122'> +6.1116314e+01 </wgt>
<wgt id='1123'> +6.1122963e+01 </wgt>
<wgt id='1124'> +6.1118233e+01 </wgt>
<wgt id='1125'> +6.1178456e+01 </wgt>
<wgt id='1126'> +6.1150434e+01 </wgt>
<wgt id='1127'> +6.1120897e+01 </wgt>
<wgt id='1128'> +6.1152459e+01 </wgt>
<wgt id='1129'> +6.1140041e+01 </wgt>
<wgt id='1130'> +6.1146103e+01 </wgt>
<wgt id='1131'> +6.1177365e+01 </wgt>
<wgt id='1132'> +6.1135688e+01 </wgt>
<wgt id='1133'> +6.1137129e+01 </wgt>
<wgt id='1134'> +6.1136408e+01 </wgt>
<wgt id='1135'> +6.1136364e+01 </wgt>
<wgt id='1136'> +6.1130710e+01 </wgt>
<wgt id='1137'> +6.1129927e+01 </wgt>
<wgt id='1138'> +6.1156098e+01 </wgt>
<wgt id='1139'> +6.1134526e+01 </wgt>
<wgt id='1140'> +6.1167099e+01 </wgt>
<wgt id='1141'> +6.1127184e+01 </wgt>
<wgt id='1142'> +6.1144579e+01 </wgt>
<wgt id='1143'> +6.1146531e+01 </wgt>
<wgt id='1144'> +6.1127207e+01 </wgt>
<wgt id='1145'> +6.1146284e+01 </wgt>
<wgt id='1146'> +6.1134333e+01 </wgt>
<wgt id='1147'> +6.1143719e+01 </wgt>
<wgt id='1148'> +6.1139206e+01 </wgt>
<wgt id='1149'> +5.8223481e+01 </wgt>
<wgt id='1150'> +6.4544344e+01 </wgt>
<wgt id='1151'> +6.1139206e+01 </wgt>
<wgt id='1152'> +6.2731483e+01 </wgt>
<wgt id='1153'> +5.9424679e+01 </wgt>
<wgt id='1154'> +5.9617078e+01 </wgt>
<wgt id='1155'> +6.1811029e+01 </wgt>
<wgt id='1156'> +6.0881246e+01 </wgt>
<wgt id='1157'> +6.4538781e+01 </wgt>
<wgt id='1158'> +6.1514595e+01 </wgt>
<wgt id='1159'> +6.0841010e+01 </wgt>
<wgt id='1160'> +6.0156769e+01 </wgt>
<wgt id='1161'> +6.2172890e+01 </wgt>
<wgt id='1162'> +6.1552344e+01 </wgt>
<wgt id='1163'> +6.3110329e+01 </wgt>
<wgt id='1164'> +6.0906845e+01 </wgt>
<wgt id='1165'> +6.1767656e+01 </wgt>
<wgt id='1166'> +5.8001560e+01 </wgt>
<wgt id='1167'> +6.0534088e+01 </wgt>
<wgt id='1168'> +6.2185641e+01 </wgt>
<wgt id='1169'> +6.1585903e+01 </wgt>
<wgt id='1170'> +5.8882199e+01 </wgt>
<wgt id='1171'> +5.9474703e+01 </wgt>
<wgt id='1172'> +6.0307205e+01 </wgt>
<wgt id='1173'> +5.8567399e+01 </wgt>
<wgt id='1174'> +5.9446053e+01 </wgt>
<wgt id='1175'> +6.1312730e+01 </wgt>
<wgt id='1176'> +6.0352953e+01 </wgt>
<wgt id='1177'> +6.0297254e+01 </wgt>
<wgt id='1178'> +5.8507673e+01 </wgt>
<wgt id='1179'> +6.1675224e+01 </wgt>
<wgt id='1180'> +6.1761711e+01 </wgt>
<wgt id='1181'> +6.1700347e+01 </wgt>
<wgt id='1182'> +6.1800855e+01 </wgt>
<wgt id='1183'> +6.3535168e+01 </wgt>
<wgt id='1184'> +6.0541796e+01 </wgt>
<wgt id='1185'> +6.3112102e+01 </wgt>
<wgt id='1186'> +6.1056146e+01 </wgt>
<wgt id='1187'> +6.2423524e+01 </wgt>
<wgt id='1188'> +6.0431023e+01 </wgt>
<wgt id='1189'> +6.0724492e+01 </wgt>
<wgt id='1190'> +6.0929896e+01 </wgt>
<wgt id='1191'> +6.1478518e+01 </wgt>
<wgt id='1192'> +6.0932281e+01 </wgt>
<wgt id='1193'> +6.3021942e+01 </wgt>
<wgt id='1194'> +6.1436143e+01 </wgt>
<wgt id='1195'> +6.2209274e+01 </wgt>
<wgt id='1196'> +6.1118442e+01 </wgt>
<wgt id='1197'> +6.1712834e+01 </wgt>
<wgt id='1198'> +6.1467223e+01 </wgt>
<wgt id='1199'> +6.1506085e+01 </wgt>
<wgt id='1200'> +5.9999312e+01 </wgt>
<wgt id='1201'> +6.2379580e+01 </wgt>
<wgt id='1202'> +6.1680585e+01 </wgt>
<wgt id='1203'> +6.1159762e+01 </wgt>
<wgt id='1204'> +6.0115409e+01 </wgt>
<wgt id='1205'> +6.0929766e+01 </wgt>
<wgt id='1206'> +6.1157799e+01 </wgt>
<wgt id='1207'> +6.1324529e+01 </wgt>
<wgt id='1208'> +6.0715948e+01 </wgt>
<wgt id='1209'> +6.0512145e+01 </wgt>
<wgt id='1210'> +6.0461420e+01 </wgt>
<wgt id='1211'> +6.1571785e+01 </wgt>
<wgt id='1212'> +6.0770037e+01 </wgt>
<wgt id='1213'> +6.1115189e+01 </wgt>
<wgt id='1214'> +6.0135352e+01 </wgt>
<wgt id='1215'> +6.1575977e+01 </wgt>
<wgt id='1216'> +6.0675939e+01 </wgt>
<wgt id='1217'> +6.1792806e+01 </wgt>
<wgt id='1218'> +6.0751745e+01 </wgt>
<wgt id='1219'> +6.0629997e+01 </wgt>
<wgt id='1220'> +6.1972503e+01 </wgt>
<wgt id='1221'> +6.1589225e+01 </wgt>
<wgt id='1222'> +6.0209470e+01 </wgt>
<wgt id='1223'> +5.7613044e+01 </wgt>
<wgt id='1224'> +6.1365118e+01 </wgt>
<wgt id='1225'> +5.9603883e+01 </wgt>
<wgt id='1226'> +6.2124392e+01 </wgt>
<wgt id='1227'> +6.1442330e+01 </wgt>
<wgt id='1228'> +6.1087489e+01 </wgt>
<wgt id='1229'> +6.0342174e+01 </wgt>
<wgt id='1230'> +6.0542935e+01 </wgt>
<wgt id='1231'> +6.3072029e+01 </wgt>
<wgt id='1232'> +6.1308907e+01 </wgt>
<wgt id='1233'> +6.0534088e+01 </wgt>
<wgt id='1234'> +6.1858519e+01 </wgt>
<wgt id='1235'> +6.0675218e+01 </wgt>
<wgt id='1236'> +5.8625550e+01 </wgt>
<wgt id='1237'> +6.2618212e+01 </wgt>
<wgt id='1238'> +6.0862694e+01 </wgt>
<wgt id='1239'> +6.3438864e+01 </wgt>
<wgt id='1240'> +6.2926836e+01 </wgt>
<wgt id='1241'> +6.3437657e+01 </wgt>
<wgt id='1242'> +6.1333851e+01 </wgt>
<wgt id='1243'> +6.1533201e+01 </wgt>
<wgt id='1244'> +6.0780330e+01 </wgt>
<wgt id='1245'> +6.1653088e+01 </wgt>
<wgt id='1246'> +6.3207885e+01 </wgt>
<wgt id='1247'> +6.0067412e+01 </wgt>
<wgt id='1248'> +6.2129497e+01 </wgt>
<wgt id='1249'> +6.2069872e+01 </wgt>
<wgt id='1250'> +6.0069453e+01 </wgt>
<wgt id='1251'> +6.0360123e+01 </wgt>
<wgt id='1252'> +6.1292607e+01 </wgt>
<wgt id='1253'> +6.1249238e+01 </wgt>
<wgt id='1254'> +6.1250482e+01 </wgt>
<wgt id='1255'> +6.1230292e+01 </wgt>
<wgt id='1256'> +6.1490068e+01 </wgt>
<wgt id='1257'> +6.1307069e+01 </wgt>
<wgt id='1258'> +6.1198781e+01 </wgt>
<wgt id='1259'> +6.1319000e+01 </wgt>
<wgt id='1260'> +6.1210682e+01 </wgt>
<wgt id='1261'> +6.1342988e+01 </wgt>
<wgt id='1262'> +6.1271440e+01 </wgt>
<wgt id='1263'> +6.0972428e+01 </wgt>
<wgt id='1264'> +6.1047545e+01 </wgt>
<wgt id='1265'> +6.0816977e+01 </wgt>
<wgt id='1266'> +6.1150203e+01 </wgt>
<wgt id='1267'> +6.1211157e+01 </wgt>
<wgt id='1268'> +6.1465688e+01 </wgt>
<wgt id='1269'> +6.1248073e+01 </wgt>
<wgt id='1270'> +6.1073150e+01 </wgt>
<wgt id='1271'> +6.1354952e+01 </wgt>
<wgt id='1272'> +6.1169063e+01 </wgt>
<wgt id='1273'> +6.1379551e+01 </wgt>
<wgt id='1274'> +6.1205634e+01 </wgt>
<wgt id='1275'> +6.1346719e+01 </wgt>
<wgt id='1276'> +6.1067572e+01 </wgt>
<wgt id='1277'> +6.1361905e+01 </wgt>
<wgt id='1278'> +6.1572960e+01 </wgt>
<wgt id='1279'> +6.1163768e+01 </wgt>
<wgt id='1280'> +6.1063361e+01 </wgt>
<wgt id='1281'> +6.1761510e+01 </wgt>
<wgt id='1282'> +6.1265556e+01 </wgt>
<wgt id='1283'> +6.1422123e+01 </wgt>
<wgt id='1284'> +6.1142985e+01 </wgt>
<wgt id='1285'> +6.1294772e+01 </wgt>
<wgt id='1286'> +6.1659678e+01 </wgt>
<wgt id='1287'> +6.1266099e+01 </wgt>
<wgt id='1288'> +6.1324363e+01 </wgt>
<wgt id='1289'> +6.1515077e+01 </wgt>
<wgt id='1290'> +6.1215349e+01 </wgt>
<wgt id='1291'> +6.0976933e+01 </wgt>
<wgt id='1292'> +6.1264057e+01 </wgt>
<wgt id='1293'> +6.1319932e+01 </wgt>
<wgt id='1294'> +6.1296800e+01 </wgt>
<wgt id='1295'> +6.1175700e+01 </wgt>
<wgt id='1296'> +6.1400847e+01 </wgt>
<wgt id='1297'> +6.1205965e+01 </wgt>
<wgt id='1298'> +6.1387879e+01 </wgt>
<wgt id='1299'> +6.1405157e+01 </wgt>
<wgt id='1300'> +6.1165998e+01 </wgt>
<wgt id='1301'> +6.1229033e+01 </wgt>
<wgt id='1302'> +6.1312219e+01 </wgt>
<wgt id='1303'> +6.1481591e+01 </wgt>
<wgt id='1304'> +6.1365745e+01 </wgt>
<wgt id='1305'> +6.1390419e+01 </wgt>
<wgt id='1306'> +6.1348157e+01 </wgt>
<wgt id='1307'> +6.1241120e+01 </wgt>
<wgt id='1308'> +6.1300301e+01 </wgt>
<wgt id='1309'> +6.1418851e+01 </wgt>
<wgt id='1310'> +6.1304019e+01 </wgt>
<wgt id='1311'> +6.1254304e+01 </wgt>
<wgt id='1312'> +6.1270791e+01 </wgt>
<wgt id='1313'> +6.1227987e+01 </wgt>
<wgt id='1314'> +6.1320106e+01 </wgt>
<wgt id='1315'> +6.1298496e+01 </wgt>
<wgt id='1316'> +6.1273781e+01 </wgt>
<wgt id='1317'> +6.1393600e+01 </wgt>
<wgt id='1318'> +6.1297791e+01 </wgt>
<wgt id='1319'> +6.1294133e+01 </wgt>
<wgt id='1320'> +6.1320540e+01 </wgt>
<wgt id='1321'> +6.1288159e+01 </wgt>
<wgt id='1322'> +6.1236146e+01 </wgt>
<wgt id='1323'> +6.1261343e+01 </wgt>
<wgt id='1324'> +6.1293681e+01 </wgt>
<wgt id='1325'> +6.1310458e+01 </wgt>
<wgt id='1326'> +6.1296654e+01 </wgt>
<wgt id='1327'> +6.1288296e+01 </wgt>
<wgt id='1328'> +6.1269852e+01 </wgt>
<wgt id='1329'> +6.1301172e+01 </wgt>
<wgt id='1330'> +6.1270313e+01 </wgt>
<wgt id='1331'> +6.1285971e+01 </wgt>
<wgt id='1332'> +6.1324797e+01 </wgt>
<wgt id='1333'> +6.1302057e+01 </wgt>
<wgt id='1334'> +6.1303843e+01 </wgt>
<wgt id='1335'> +6.1330934e+01 </wgt>
<wgt id='1336'> +6.1315912e+01 </wgt>
<wgt id='1337'> +6.1322418e+01 </wgt>
<wgt id='1338'> +6.1257480e+01 </wgt>
<wgt id='1339'> +6.1270613e+01 </wgt>
<wgt id='1340'> +6.1309984e+01 </wgt>
<wgt id='1341'> +6.1244793e+01 </wgt>
<wgt id='1342'> +6.1273817e+01 </wgt>
<wgt id='1343'> +6.1318194e+01 </wgt>
<wgt id='1344'> +6.1314988e+01 </wgt>
<wgt id='1345'> +6.1283916e+01 </wgt>
<wgt id='1346'> +6.1330630e+01 </wgt>
<wgt id='1347'> +6.1321000e+01 </wgt>
<wgt id='1348'> +6.1274886e+01 </wgt>
<wgt id='1349'> +6.1298640e+01 </wgt>
<wgt id='1350'> +6.1298163e+01 </wgt>
<wgt id='1351'> +6.1264040e+01 </wgt>
<wgt id='1352'> +6.1308810e+01 </wgt>
<wgt id='1353'> +5.8223481e+01 </wgt>
<wgt id='1354'> +6.4544344e+01 </wgt>
<wgt id='1355'> +4.7546035e+01 </wgt>
<wgt id='1356'> +5.0131796e+01 </wgt>
<wgt id='1357'> +5.2784587e+01 </wgt>
<wgt id='1358'> +5.5263544e+01 </wgt>
<wgt id='1359'> +5.9750206e+01 </wgt>
<wgt id='1360'> +6.2748660e+01 </wgt>
<wgt id='1361'> +6.7527660e+01 </wgt>
<wgt id='1362'> +7.0798619e+01 </wgt>
<wgt id='1363'> +6.2109625e+01 </wgt>
<wgt id='1364'> +6.2047220e+01 </wgt>
<wgt id='1365'> +6.2168950e+01 </wgt>
<wgt id='1366'> +6.1975798e+01 </wgt>
<wgt id='1367'> +6.2257143e+01 </wgt>
<wgt id='1368'> +6.1979306e+01 </wgt>
<wgt id='1369'> +6.1990879e+01 </wgt>
<wgt id='1370'> +6.2094099e+01 </wgt>
<wgt id='1371'> +6.2183534e+01 </wgt>
<wgt id='1372'> +6.2227582e+01 </wgt>
<wgt id='1373'> +6.2182519e+01 </wgt>
<wgt id='1374'> +6.1940695e+01 </wgt>
<wgt id='1375'> +6.1875936e+01 </wgt>
<wgt id='1376'> +6.2499365e+01 </wgt>
<wgt id='1377'> +6.1931034e+01 </wgt>
<wgt id='1378'> +6.1931589e+01 </wgt>
<wgt id='1379'> +6.2070747e+01 </wgt>
<wgt id='1380'> +6.1875897e+01 </wgt>
<wgt id='1381'> +6.2135866e+01 </wgt>
<wgt id='1382'> +6.2417876e+01 </wgt>
<wgt id='1383'> +6.2201754e+01 </wgt>
<wgt id='1384'> +6.2281131e+01 </wgt>
<wgt id='1385'> +6.2131898e+01 </wgt>
<wgt id='1386'> +6.2132160e+01 </wgt>
<wgt id='1387'> +6.2030846e+01 </wgt>
<wgt id='1388'> +6.2223621e+01 </wgt>
<wgt id='1389'> +6.2121835e+01 </wgt>
<wgt id='1390'> +6.2108229e+01 </wgt>
<wgt id='1391'> +6.1877558e+01 </wgt>
<wgt id='1392'> +6.1765107e+01 </wgt>
<wgt id='1393'> +6.2605202e+01 </wgt>
<wgt id='1394'> +6.2368919e+01 </wgt>
<wgt id='1395'> +6.2245467e+01 </wgt>
<wgt id='1396'> +6.2442382e+01 </wgt>
<wgt id='1397'> +6.2155610e+01 </wgt>
<wgt id='1398'> +6.2587171e+01 </wgt>
<wgt id='1399'> +6.2209105e+01 </wgt>
<wgt id='1400'> +6.2032463e+01 </wgt>
<wgt id='1401'> +6.2130080e+01 </wgt>
<wgt id='1402'> +6.2022535e+01 </wgt>
<wgt id='1403'> +6.1982521e+01 </wgt>
<wgt id='1404'> +6.2230475e+01 </wgt>
<wgt id='1405'> +6.2032793e+01 </wgt>
<wgt id='1406'> +6.2002294e+01 </wgt>
<wgt id='1407'> +6.2099890e+01 </wgt>
<wgt id='1408'> +6.2182059e+01 </wgt>
<wgt id='1409'> +6.2241113e+01 </wgt>
<wgt id='1410'> +6.2153430e+01 </wgt>
<wgt id='1411'> +6.2108084e+01 </wgt>
<wgt id='1412'> +6.2101330e+01 </wgt>
<wgt id='1413'> +6.2040165e+01 </wgt>
<wgt id='1414'> +6.2180603e+01 </wgt>
<wgt id='1415'> +6.2012371e+01 </wgt>
<wgt id='1416'> +6.2072641e+01 </wgt>
<wgt id='1417'> +6.2141111e+01 </wgt>
<wgt id='1418'> +6.1881540e+01 </wgt>
<wgt id='1419'> +6.2116768e+01 </wgt>
<wgt id='1420'> +6.2102679e+01 </wgt>
<wgt id='1421'> +6.2012469e+01 </wgt>
<wgt id='1422'> +6.2123944e+01 </wgt>
<wgt id='1423'> +6.2156168e+01 </wgt>
<wgt id='1424'> +6.2104233e+01 </wgt>
<wgt id='1425'> +6.2148159e+01 </wgt>
<wgt id='1426'> +6.2173215e+01 </wgt>
<wgt id='1427'> +6.2056299e+01 </wgt>
<wgt id='1428'> +6.2075377e+01 </wgt>
<wgt id='1429'> +6.2135563e+01 </wgt>
<wgt id='1430'> +6.2048605e+01 </wgt>
<wgt id='1431'> +6.2166553e+01 </wgt>
<wgt id='1432'> +6.2130009e+01 </wgt>
<wgt id='1433'> +6.2167365e+01 </wgt>
<wgt id='1434'> +6.2071788e+01 </wgt>
<wgt id='1435'> +6.2058555e+01 </wgt>
<wgt id='1436'> +6.2017904e+01 </wgt>
<wgt id='1437'> +6.2155030e+01 </wgt>
<wgt id='1438'> +6.2066785e+01 </wgt>
<wgt id='1439'> +6.2104457e+01 </wgt>
<wgt id='1440'> +6.2150786e+01 </wgt>
<wgt id='1441'> +6.2117230e+01 </wgt>
<wgt id='1442'> +6.2119532e+01 </wgt>
<wgt id='1443'> +6.2116060e+01 </wgt>
<wgt id='1444'> +6.2131168e+01 </wgt>
<wgt id='1445'> +6.2097877e+01 </wgt>
<wgt id='1446'> +6.2110658e+01 </wgt>
<wgt id='1447'> +6.2105940e+01 </wgt>
<wgt id='1448'> +6.2091596e+01 </wgt>
<wgt id='1449'> +6.2035179e+01 </wgt>
<wgt id='1450'> +6.2084349e+01 </wgt>
<wgt id='1451'> +6.2122604e+01 </wgt>
<wgt id='1452'> +6.2103899e+01 </wgt>
<wgt id='1453'> +6.2100270e+01 </wgt>
<wgt id='1454'> +6.2132553e+01 </wgt>
<wgt id='1455'> +6.2135059e+01 </wgt>
<wgt id='1456'> +6.2112370e+01 </wgt>
<wgt id='1457'> +6.2129887e+01 </wgt>
<wgt id='1458'> +6.2113421e+01 </wgt>
<wgt id='1459'> +6.2132294e+01 </wgt>
<wgt id='1460'> +6.2100332e+01 </wgt>
<wgt id='1461'> +6.2139148e+01 </wgt>
<wgt id='1462'> +6.2128835e+01 </wgt>
<wgt id='1463'> +6.2105144e+01 </wgt>
<wgt id='1464'> +5.8929066e+01 </wgt>
<wgt id='1465'> +6.4957328e+01 </wgt>
<wgt id='1466'> +6.0896566e+01 </wgt>
<wgt id='1467'> +6.1159863e+01 </wgt>
<wgt id='1468'> +6.1071883e+01 </wgt>
<wgt id='1469'> +6.1187297e+01 </wgt>
<wgt id='1470'> +6.0404778e+01 </wgt>
<wgt id='1471'> +6.0692585e+01 </wgt>
<wgt id='1472'> +5.8192634e+01 </wgt>
<wgt id='1473'> +5.9655892e+01 </wgt>
<wgt id='1474'> +6.1792266e+01 </wgt>
<wgt id='1475'> +5.9954449e+01 </wgt>
<wgt id='1476'> +6.1120251e+01 </wgt>
<wgt id='1477'> +6.1301922e+01 </wgt>
<wgt id='1478'> +6.0719235e+01 </wgt>
<wgt id='1479'> +6.2609650e+01 </wgt>
<wgt id='1480'> +6.1814901e+01 </wgt>
<wgt id='1481'> +6.0641029e+01 </wgt>
<wgt id='1482'> +6.1640439e+01 </wgt>
<wgt id='1483'> +5.9519142e+01 </wgt>
<wgt id='1484'> +6.2368775e+01 </wgt>
<wgt id='1485'> +6.1886638e+01 </wgt>
<wgt id='1486'> +5.9977750e+01 </wgt>
<wgt id='1487'> +6.0619891e+01 </wgt>
<wgt id='1488'> +6.1071303e+01 </wgt>
<wgt id='1489'> +6.0498052e+01 </wgt>
<wgt id='1490'> +6.1338097e+01 </wgt>
<wgt id='1491'> +6.1388356e+01 </wgt>
<wgt id='1492'> +6.0492571e+01 </wgt>
<wgt id='1493'> +6.0901304e+01 </wgt>
<wgt id='1494'> +6.0882509e+01 </wgt>
<wgt id='1495'> +6.1073725e+01 </wgt>
<wgt id='1496'> +6.0796827e+01 </wgt>
<wgt id='1497'> +6.0810913e+01 </wgt>
<wgt id='1498'> +6.1030520e+01 </wgt>
<wgt id='1499'> +6.1030389e+01 </wgt>
<wgt id='1500'> +6.0788230e+01 </wgt>
<wgt id='1501'> +6.1981686e+01 </wgt>
<wgt id='1502'> +5.9948395e+01 </wgt>
<wgt id='1503'> +5.8836757e+01 </wgt>
<wgt id='1504'> +6.3266030e+01 </wgt>
<wgt id='1505'> +6.2387971e+01 </wgt>
<wgt id='1506'> +6.0075735e+01 </wgt>
<wgt id='1507'> +6.1452945e+01 </wgt>
<wgt id='1508'> +6.0700532e+01 </wgt>
<wgt id='1509'> +6.1051430e+01 </wgt>
<wgt id='1510'> +6.1545249e+01 </wgt>
<wgt id='1511'> +6.0380905e+01 </wgt>
<wgt id='1512'> +5.9264780e+01 </wgt>
<wgt id='1513'> +6.0630269e+01 </wgt>
<wgt id='1514'> +6.0240212e+01 </wgt>
<wgt id='1515'> +6.0948412e+01 </wgt>
<wgt id='1516'> +6.0747309e+01 </wgt>
<wgt id='1517'> +6.0791093e+01 </wgt>
<wgt id='1518'> +6.0890849e+01 </wgt>
<wgt id='1519'> +5.8325764e+01 </wgt>
<wgt id='1520'> +5.8450204e+01 </wgt>
<wgt id='1521'> +6.0284208e+01 </wgt>
<wgt id='1522'> +6.2296510e+01 </wgt>
<wgt id='1523'> +5.7543139e+01 </wgt>
<wgt id='1524'> +6.4557829e+01 </wgt>
<wgt id='1525'> +5.9290335e+01 </wgt>
<wgt id='1526'> +5.9166663e+01 </wgt>
<wgt id='1527'> +5.9287616e+01 </wgt>
<wgt id='1528'> +5.7074959e+01 </wgt>
<wgt id='1529'> +5.8975433e+01 </wgt>
<wgt id='1530'> +5.9056804e+01 </wgt>
<wgt id='1531'> +5.9573279e+01 </wgt>
<wgt id='1532'> +5.8975625e+01 </wgt>
<wgt id='1533'> +5.8711589e+01 </wgt>
<wgt id='1534'> +5.9986269e+01 </wgt>
<wgt id='1535'> +5.8527758e+01 </wgt>
<wgt id='1536'> +6.0309973e+01 </wgt>
<wgt id='1537'> +5.8432547e+01 </wgt>
<wgt id='1538'> +6.0067433e+01 </wgt>
<wgt id='1539'> +5.8987120e+01 </wgt>
<wgt id='1540'> +6.0860213e+01 </wgt>
<wgt id='1541'> +5.8220412e+01 </wgt>
<wgt id='1542'> +5.7996065e+01 </wgt>
<wgt id='1543'> +6.0824583e+01 </wgt>
<wgt id='1544'> +5.9626378e+01 </wgt>
<wgt id='1545'> +5.8960660e+01 </wgt>
<wgt id='1546'> +5.9450323e+01 </wgt>
<wgt id='1547'> +5.8981463e+01 </wgt>
<wgt id='1548'> +5.9332838e+01 </wgt>
<wgt id='1549'> +5.9267340e+01 </wgt>
<wgt id='1550'> +6.1222676e+01 </wgt>
<wgt id='1551'> +5.7483125e+01 </wgt>
<wgt id='1552'> +5.9564123e+01 </wgt>
<wgt id='1553'> +5.8929458e+01 </wgt>
<wgt id='1554'> +5.9505759e+01 </wgt>
<wgt id='1555'> +5.9223232e+01 </wgt>
<wgt id='1556'> +5.9548682e+01 </wgt>
<wgt id='1557'> +5.8957215e+01 </wgt>
<wgt id='1558'> +5.8735206e+01 </wgt>
<wgt id='1559'> +6.0529270e+01 </wgt>
<wgt id='1560'> +5.7807681e+01 </wgt>
<wgt id='1561'> +6.0802279e+01 </wgt>
<wgt id='1562'> +5.8928612e+01 </wgt>
<wgt id='1563'> +5.9887639e+01 </wgt>
<wgt id='1564'> +5.9227789e+01 </wgt>
<wgt id='1565'> +5.9528559e+01 </wgt>
<wgt id='1566'> +5.8768039e+01 </wgt>
<wgt id='1567'> +5.9875891e+01 </wgt>
<wgt id='1568'> +5.8570028e+01 </wgt>
<wgt id='1569'> +6.0755242e+01 </wgt>
<wgt id='1570'> +5.9360928e+01 </wgt>
<wgt id='1571'> +5.9792537e+01 </wgt>
<wgt id='1572'> +5.9695651e+01 </wgt>
<wgt id='1573'> +5.7197979e+01 </wgt>
<wgt id='1574'> +5.7438050e+01 </wgt>
<wgt id='1575'> +5.9861850e+01 </wgt>
<wgt id='1576'> +5.9511582e+01 </wgt>
<wgt id='1577'> +5.9471130e+01 </wgt>
<wgt id='1578'> +5.7087213e+01 </wgt>
<wgt id='1579'> +6.0058798e+01 </wgt>
<wgt id='1580'> +5.8854334e+01 </wgt>
<wgt id='1581'> +6.0333095e+01 </wgt>
<wgt id='1582'> +5.6279307e+01 </wgt>
<wgt id='1583'> +6.2577722e+01 </wgt>
<wgt id='1584'> +5.5366675e+01 </wgt>
<wgt id='1585'> +6.0755994e+01 </wgt>
<wgt id='1586'> +6.0799477e+01 </wgt>
<wgt id='1587'> +6.0709374e+01 </wgt>
<wgt id='1588'> +6.0830312e+01 </wgt>
<wgt id='1589'> +6.0703180e+01 </wgt>
<wgt id='1590'> +6.1139622e+01 </wgt>
<wgt id='1591'> +6.0396141e+01 </wgt>
<wgt id='1592'> +6.0547170e+01 </wgt>
<wgt id='1593'> +6.0994563e+01 </wgt>
<wgt id='1594'> +6.0792915e+01 </wgt>
<wgt id='1595'> +6.0718436e+01 </wgt>
<wgt id='1596'> +6.0793615e+01 </wgt>
<wgt id='1597'> +6.0671674e+01 </wgt>
<wgt id='1598'> +6.0748186e+01 </wgt>
<wgt id='1599'> +6.0771568e+01 </wgt>
<wgt id='1600'> +6.0700999e+01 </wgt>
<wgt id='1601'> +6.0787114e+01 </wgt>
<wgt id='1602'> +6.0547906e+01 </wgt>
<wgt id='1603'> +6.1001885e+01 </wgt>
<wgt id='1604'> +6.0760793e+01 </wgt>
<wgt id='1605'> +6.0750525e+01 </wgt>
<wgt id='1606'> +6.0642097e+01 </wgt>
<wgt id='1607'> +6.0899644e+01 </wgt>
<wgt id='1608'> +6.0424594e+01 </wgt>
<wgt id='1609'> +6.0971900e+01 </wgt>
<wgt id='1610'> +6.1229532e+01 </wgt>
<wgt id='1611'> +6.0299487e+01 </wgt>
<wgt id='1612'> +6.0763984e+01 </wgt>
<wgt id='1613'> +6.0723191e+01 </wgt>
<wgt id='1614'> +6.0362476e+01 </wgt>
<wgt id='1615'> +6.1229190e+01 </wgt>
<wgt id='1616'> +5.9888799e+01 </wgt>
<wgt id='1617'> +6.1744636e+01 </wgt>
<wgt id='1618'> +6.1092628e+01 </wgt>
<wgt id='1619'> +6.0433484e+01 </wgt>
<wgt id='1620'> +6.0909527e+01 </wgt>
<wgt id='1621'> +6.0338662e+01 </wgt>
<wgt id='1622'> +6.0794270e+01 </wgt>
<wgt id='1623'> +6.0732485e+01 </wgt>
<wgt id='1624'> +6.0571379e+01 </wgt>
<wgt id='1625'> +6.0967859e+01 </wgt>
<wgt id='1626'> +6.0185328e+01 </wgt>
<wgt id='1627'> +6.1399582e+01 </wgt>
<wgt id='1628'> +6.1191283e+01 </wgt>
<wgt id='1629'> +6.0519336e+01 </wgt>
<wgt id='1630'> +6.0675968e+01 </wgt>
<wgt id='1631'> +6.0953438e+01 </wgt>
<wgt id='1632'> +6.1834464e+01 </wgt>
<wgt id='1633'> +5.9547426e+01 </wgt>
<wgt id='1634'> +6.1229944e+01 </wgt>
<wgt id='1635'> +6.0528788e+01 </wgt>
<wgt id='1636'> +6.0335342e+01 </wgt>
<wgt id='1637'> +6.0320626e+01 </wgt>
<wgt id='1638'> +6.0364078e+01 </wgt>
<wgt id='1639'> +6.0539372e+01 </wgt>
<wgt id='1640'> +6.0138744e+01 </wgt>
<wgt id='1641'> +6.0538192e+01 </wgt>
<wgt id='1642'> +6.0259773e+01 </wgt>
<wgt id='1643'> +6.0337216e+01 </wgt>
<wgt id='1644'> +6.0334762e+01 </wgt>
<wgt id='1645'> +6.0371047e+01 </wgt>
<wgt id='1646'> +6.0299529e+01 </wgt>
<wgt id='1647'> +6.0260141e+01 </wgt>
<wgt id='1648'> +6.0370841e+01 </wgt>
<wgt id='1649'> +6.0327190e+01 </wgt>
<wgt id='1650'> +6.0350563e+01 </wgt>
<wgt id='1651'> +6.0352103e+01 </wgt>
<wgt id='1652'> +6.0318800e+01 </wgt>
<wgt id='1653'> +6.0390556e+01 </wgt>
<wgt id='1654'> +6.0304050e+01 </wgt>
<wgt id='1655'> +6.0368332e+01 </wgt>
<wgt id='1656'> +6.0295731e+01 </wgt>
<wgt id='1657'> +6.0220458e+01 </wgt>
<wgt id='1658'> +6.0419209e+01 </wgt>
<wgt id='1659'> +6.0738017e+01 </wgt>
<wgt id='1660'> +5.9963273e+01 </wgt>
<wgt id='1661'> +6.0452007e+01 </wgt>
<wgt id='1662'> +6.0037454e+01 </wgt>
<wgt id='1663'> +6.0300257e+01 </wgt>
<wgt id='1664'> +6.0271020e+01 </wgt>
<wgt id='1665'> +6.0665013e+01 </wgt>
<wgt id='1666'> +5.9542012e+01 </wgt>
<wgt id='1667'> +5.9976321e+01 </wgt>
<wgt id='1668'> +6.1078512e+01 </wgt>
<wgt id='1669'> +6.0471712e+01 </wgt>
<wgt id='1670'> +6.0049372e+01 </wgt>
<wgt id='1671'> +5.9782546e+01 </wgt>
<wgt id='1672'> +6.0565179e+01 </wgt>
<wgt id='1673'> +6.0302679e+01 </wgt>
<wgt id='1674'> +6.0335245e+01 </wgt>
<wgt id='1675'> +6.0066440e+01 </wgt>
<wgt id='1676'> +6.0541095e+01 </wgt>
<wgt id='1677'> +6.0469413e+01 </wgt>
<wgt id='1678'> +6.0132963e+01 </wgt>
<wgt id='1679'> +6.0395980e+01 </wgt>
<wgt id='1680'> +6.0015938e+01 </wgt>
<wgt id='1681'> +5.9359270e+01 </wgt>
<wgt id='1682'> +6.1095154e+01 </wgt>
<wgt id='1683'> +6.0825109e+01 </wgt>
<wgt id='1684'> +6.0128825e+01 </wgt>
<wgt id='1685'> +5.9821647e+01 </wgt>
<wgt id='1686'> +6.0721754e+01 </wgt>
<wgt id='1687'> +8.0582578e+01 </wgt>
<wgt id='1688'> +6.0074492e+01 </wgt>
<wgt id='1689'> +6.0064552e+01 </wgt>
<wgt id='1690'> +6.0092641e+01 </wgt>
<wgt id='1691'> +6.0074017e+01 </wgt>
<wgt id='1692'> +6.0073077e+01 </wgt>
<wgt id='1693'> +5.9979850e+01 </wgt>
<wgt id='1694'> +6.0179301e+01 </wgt>
<wgt id='1695'> +6.0276898e+01 </wgt>
<wgt id='1696'> +6.0221534e+01 </wgt>
<wgt id='1697'> +6.0340356e+01 </wgt>
<wgt id='1698'> +5.9979433e+01 </wgt>
<wgt id='1699'> +6.0106034e+01 </wgt>
<wgt id='1700'> +5.9786464e+01 </wgt>
<wgt id='1701'> +5.9889516e+01 </wgt>
<wgt id='1702'> +6.0293749e+01 </wgt>
<wgt id='1703'> +6.0040064e+01 </wgt>
<wgt id='1704'> +6.0154993e+01 </wgt>
<wgt id='1705'> +6.0090088e+01 </wgt>
<wgt id='1706'> +6.0308727e+01 </wgt>
<wgt id='1707'> +6.0062990e+01 </wgt>
<wgt id='1708'> +6.0145204e+01 </wgt>
<wgt id='1709'> +5.9990256e+01 </wgt>
<wgt id='1710'> +6.0193249e+01 </wgt>
<wgt id='1711'> +5.9937657e+01 </wgt>
<wgt id='1712'> +5.9726343e+01 </wgt>
<wgt id='1713'> +5.9910816e+01 </wgt>
<wgt id='1714'> +6.0127388e+01 </wgt>
<wgt id='1715'> +6.0183872e+01 </wgt>
<wgt id='1716'> +6.0110404e+01 </wgt>
<wgt id='1717'> +6.0218156e+01 </wgt>
<wgt id='1718'> +6.1512842e+01 </wgt>
<wgt id='1719'> +6.0943083e+01 </wgt>
<wgt id='1720'> +6.1806011e+01 </wgt>
<wgt id='1721'> +6.1560051e+01 </wgt>
<wgt id='1722'> +6.1166372e+01 </wgt>
<wgt id='1723'> +6.1539806e+01 </wgt>
<wgt id='1724'> +6.2114940e+01 </wgt>
<wgt id='1725'> +6.0504222e+01 </wgt>
<wgt id='1726'> +5.9727405e+01 </wgt>
<wgt id='1727'> +6.2305613e+01 </wgt>
<wgt id='1728'> +6.2074631e+01 </wgt>
<wgt id='1729'> +6.1385556e+01 </wgt>
<wgt id='1730'> +6.1817987e+01 </wgt>
<wgt id='1731'> +6.1466401e+01 </wgt>
<wgt id='1732'> +6.0423086e+01 </wgt>
<wgt id='1733'> +6.2162257e+01 </wgt>
<wgt id='1734'> +6.1181817e+01 </wgt>
<wgt id='1735'> +6.1181169e+01 </wgt>
<wgt id='1736'> +6.1008370e+01 </wgt>
<wgt id='1737'> +6.0884293e+01 </wgt>
<wgt id='1738'> +6.1199363e+01 </wgt>
<wgt id='1739'> +6.1396134e+01 </wgt>
<wgt id='1740'> +6.1808230e+01 </wgt>
<wgt id='1741'> +6.1177217e+01 </wgt>
<wgt id='1742'> +6.1637847e+01 </wgt>
<wgt id='1743'> +6.1628927e+01 </wgt>
<wgt id='1744'> +6.1357779e+01 </wgt>
<wgt id='1745'> +6.1406379e+01 </wgt>
<wgt id='1746'> +6.1459392e+01 </wgt>
<wgt id='1747'> +6.1437831e+01 </wgt>
<wgt id='1748'> +6.1658199e+01 </wgt>
<wgt id='1749'> +6.1493468e+01 </wgt>
<wgt id='1750'> +6.1510283e+01 </wgt>
<wgt id='1751'> +6.1352334e+01 </wgt>
<wgt id='1752'> +6.1520336e+01 </wgt>
<wgt id='1753'> +6.1665317e+01 </wgt>
<wgt id='1754'> +6.1482764e+01 </wgt>
<wgt id='1755'> +6.1506995e+01 </wgt>
<wgt id='1756'> +6.1511175e+01 </wgt>
<wgt id='1757'> +6.1555664e+01 </wgt>
<wgt id='1758'> +6.1567518e+01 </wgt>
<wgt id='1759'> +6.1576325e+01 </wgt>
<wgt id='1760'> +6.1541542e+01 </wgt>
<wgt id='1761'> +6.1442045e+01 </wgt>
<wgt id='1762'> +6.1603458e+01 </wgt>
<wgt id='1763'> +6.1543871e+01 </wgt>
<wgt id='1764'> +6.1591020e+01 </wgt>
<wgt id='1765'> +6.1446112e+01 </wgt>
<wgt id='1766'> +6.1497668e+01 </wgt>
<wgt id='1767'> +6.1537738e+01 </wgt>
<wgt id='1768'> +6.1448273e+01 </wgt>
<wgt id='1769'> +6.1492261e+01 </wgt>
<wgt id='1770'> +6.1449966e+01 </wgt>
<wgt id='1771'> +6.1411328e+01 </wgt>
<wgt id='1772'> +6.1473988e+01 </wgt>
<wgt id='1773'> +6.1515712e+01 </wgt>
<wgt id='1774'> +6.1481638e+01 </wgt>
<wgt id='1775'> +6.1541753e+01 </wgt>
<wgt id='1776'> +6.1594487e+01 </wgt>
<wgt id='1777'> +6.1502752e+01 </wgt>
<wgt id='1778'> +6.1423160e+01 </wgt>
<wgt id='1779'> +6.1560628e+01 </wgt>
<wgt id='1780'> +6.1480400e+01 </wgt>
<wgt id='1781'> +6.1512855e+01 </wgt>
<wgt id='1782'> +6.1481086e+01 </wgt>
<wgt id='1783'> +6.1540698e+01 </wgt>
<wgt id='1784'> +6.1553039e+01 </wgt>
<wgt id='1785'> +6.1509397e+01 </wgt>
<wgt id='1786'> +6.1566848e+01 </wgt>
<wgt id='1787'> +6.1547135e+01 </wgt>
<wgt id='1788'> +6.1491265e+01 </wgt>
<wgt id='1789'> +6.1449052e+01 </wgt>
<wgt id='1790'> +6.1463471e+01 </wgt>
<wgt id='1791'> +6.1484730e+01 </wgt>
<wgt id='1792'> +6.1469851e+01 </wgt>
<wgt id='1793'> +6.1496707e+01 </wgt>
<wgt id='1794'> +6.1516023e+01 </wgt>
<wgt id='1795'> +6.1469932e+01 </wgt>
<wgt id='1796'> +6.1494117e+01 </wgt>
<wgt id='1797'> +6.1562803e+01 </wgt>
<wgt id='1798'> +6.1505338e+01 </wgt>
<wgt id='1799'> +6.1553870e+01 </wgt>
<wgt id='1800'> +6.1476924e+01 </wgt>
<wgt id='1801'> +6.1530046e+01 </wgt>
<wgt id='1802'> +6.1561172e+01 </wgt>
<wgt id='1803'> +6.1537889e+01 </wgt>
<wgt id='1804'> +6.1589010e+01 </wgt>
<wgt id='1805'> +6.1527441e+01 </wgt>
<wgt id='1806'> +6.1516328e+01 </wgt>
<wgt id='1807'> +6.1508535e+01 </wgt>
<wgt id='1808'> +6.1521789e+01 </wgt>
<wgt id='1809'> +6.1476309e+01 </wgt>
<wgt id='1810'> +6.1505770e+01 </wgt>
<wgt id='1811'> +6.1497399e+01 </wgt>
<wgt id='1812'> +6.1498522e+01 </wgt>
<wgt id='1813'> +6.1504882e+01 </wgt>
<wgt id='1814'> +6.1509203e+01 </wgt>
<wgt id='1815'> +6.1526177e+01 </wgt>
<wgt id='1816'> +6.1526068e+01 </wgt>
<wgt id='1817'> +6.1516458e+01 </wgt>
<wgt id='1818'> +6.1514657e+01 </wgt>
<wgt id='1819'> +5.9604825e+01 </wgt>
<wgt id='1820'> +6.3537898e+01 </wgt>
<wgt id='1821'> +6.1068125e+01 </wgt>
<wgt id='1822'> +6.1013493e+01 </wgt>
<wgt id='1823'> +6.1150689e+01 </wgt>
<wgt id='1824'> +6.0913391e+01 </wgt>
<wgt id='1825'> +6.1272968e+01 </wgt>
<wgt id='1826'> +6.1386847e+01 </wgt>
<wgt id='1827'> +6.1162994e+01 </wgt>
<wgt id='1828'> +6.0702403e+01 </wgt>
<wgt id='1829'> +6.0915075e+01 </wgt>
<wgt id='1830'> +6.1119981e+01 </wgt>
<wgt id='1831'> +6.0671740e+01 </wgt>
<wgt id='1832'> +6.1351216e+01 </wgt>
<wgt id='1833'> +6.1888905e+01 </wgt>
<wgt id='1834'> +6.1159539e+01 </wgt>
<wgt id='1835'> +6.1620254e+01 </wgt>
<wgt id='1836'> +6.0855395e+01 </wgt>
<wgt id='1837'> +6.1748122e+01 </wgt>
<wgt id='1838'> +6.0317371e+01 </wgt>
<wgt id='1839'> +6.1137011e+01 </wgt>
<wgt id='1840'> +6.1325460e+01 </wgt>
<wgt id='1841'> +6.1707808e+01 </wgt>
<wgt id='1842'> +6.1134858e+01 </wgt>
<wgt id='1843'> +6.1256588e+01 </wgt>
<wgt id='1844'> +6.0489934e+01 </wgt>
<wgt id='1845'> +6.0816484e+01 </wgt>
<wgt id='1846'> +6.1249214e+01 </wgt>
<wgt id='1847'> +6.1069237e+01 </wgt>
<wgt id='1848'> +6.1063951e+01 </wgt>
<wgt id='1849'> +6.1133021e+01 </wgt>
<wgt id='1850'> +6.1115549e+01 </wgt>
<wgt id='1851'> +6.1185002e+01 </wgt>
<wgt id='1852'> +6.0973951e+01 </wgt>
<wgt id='1853'> +6.1089291e+01 </wgt>
<wgt id='1854'> +6.1125063e+01 </wgt>
<wgt id='1855'> +6.1119083e+01 </wgt>
<wgt id='1856'> +6.1122181e+01 </wgt>
<wgt id='1857'> +6.1105320e+01 </wgt>
<wgt id='1858'> +6.1113923e+01 </wgt>
<wgt id='1859'> +6.1128599e+01 </wgt>
<wgt id='1860'> +6.1074130e+01 </wgt>
<wgt id='1861'> +6.1024766e+01 </wgt>
<wgt id='1862'> +6.1092383e+01 </wgt>
<wgt id='1863'> +6.1107903e+01 </wgt>
<wgt id='1864'> +6.0966442e+01 </wgt>
<wgt id='1865'> +6.1078644e+01 </wgt>
<wgt id='1866'> +6.1109639e+01 </wgt>
<wgt id='1867'> +6.0981129e+01 </wgt>
<wgt id='1868'> +6.1110621e+01 </wgt>
<wgt id='1869'> +6.1107005e+01 </wgt>
<wgt id='1870'> +6.1034480e+01 </wgt>
<wgt id='1871'> +6.1063209e+01 </wgt>
<wgt id='1872'> +6.1118301e+01 </wgt>
<wgt id='1873'> +6.1131501e+01 </wgt>
<wgt id='1874'> +6.1056276e+01 </wgt>
<wgt id='1875'> +6.1033946e+01 </wgt>
<wgt id='1876'> +6.1018805e+01 </wgt>
<wgt id='1877'> +6.1112259e+01 </wgt>
<wgt id='1878'> +6.1083639e+01 </wgt>
<wgt id='1879'> +6.0977408e+01 </wgt>
<wgt id='1880'> +6.1022975e+01 </wgt>
<wgt id='1881'> +6.1032232e+01 </wgt>
<wgt id='1882'> +6.1069513e+01 </wgt>
<wgt id='1883'> +6.1080471e+01 </wgt>
<wgt id='1884'> +6.1084672e+01 </wgt>
<wgt id='1885'> +6.1074507e+01 </wgt>
<wgt id='1886'> +6.1049801e+01 </wgt>
<wgt id='1887'> +6.1061999e+01 </wgt>
<wgt id='1888'> +6.1092566e+01 </wgt>
<wgt id='1889'> +6.1074405e+01 </wgt>
<wgt id='1890'> +6.1130077e+01 </wgt>
<wgt id='1891'> +6.1048357e+01 </wgt>
<wgt id='1892'> +6.1116298e+01 </wgt>
<wgt id='1893'> +6.1122548e+01 </wgt>
<wgt id='1894'> +6.1055727e+01 </wgt>
<wgt id='1895'> +6.1076759e+01 </wgt>
<wgt id='1896'> +6.1061388e+01 </wgt>
<wgt id='1897'> +6.1057939e+01 </wgt>
<wgt id='1898'> +6.1090310e+01 </wgt>
<wgt id='1899'> +6.1065596e+01 </wgt>
<wgt id='1900'> +6.1061889e+01 </wgt>
<wgt id='1901'> +6.1148526e+01 </wgt>
<wgt id='1902'> +6.1065655e+01 </wgt>
<wgt id='1903'> +6.1090521e+01 </wgt>
<wgt id='1904'> +6.1045038e+01 </wgt>
<wgt id='1905'> +6.1035194e+01 </wgt>
<wgt id='1906'> +6.1027696e+01 </wgt>
<wgt id='1907'> +6.1086559e+01 </wgt>
<wgt id='1908'> +6.0993857e+01 </wgt>
<wgt id='1909'> +6.1037617e+01 </wgt>
<wgt id='1910'> +6.1041143e+01 </wgt>
<wgt id='1911'> +6.1080436e+01 </wgt>
<wgt id='1912'> +6.1048777e+01 </wgt>
<wgt id='1913'> +6.1059601e+01 </wgt>
<wgt id='1914'> +6.1047891e+01 </wgt>
<wgt id='1915'> +6.1050223e+01 </wgt>
<wgt id='1916'> +6.1072707e+01 </wgt>
<wgt id='1917'> +6.1053846e+01 </wgt>
<wgt id='1918'> +6.1075538e+01 </wgt>
<wgt id='1919'> +6.1061345e+01 </wgt>
<wgt id='1920'> +6.1049665e+01 </wgt>
<wgt id='1921'> +6.1070093e+01 </wgt>
<wgt id='1922'> +5.9102362e+01 </wgt>
<wgt id='1923'> +6.3275712e+01 </wgt>
<wgt id='1924'> +6.1572788e+01 </wgt>
<wgt id='1925'> +6.1932814e+01 </wgt>
<wgt id='1926'> +6.0598805e+01 </wgt>
<wgt id='1927'> +6.1503357e+01 </wgt>
<wgt id='1928'> +5.9809567e+01 </wgt>
<wgt id='1929'> +6.1184051e+01 </wgt>
<wgt id='1930'> +6.1044263e+01 </wgt>
<wgt id='1931'> +6.1561936e+01 </wgt>
<wgt id='1932'> +6.1876431e+01 </wgt>
<wgt id='1933'> +6.1105060e+01 </wgt>
<wgt id='1934'> +6.1896862e+01 </wgt>
<wgt id='1935'> +6.0985399e+01 </wgt>
<wgt id='1936'> +6.1555593e+01 </wgt>
<wgt id='1937'> +6.1717289e+01 </wgt>
<wgt id='1938'> +6.1404338e+01 </wgt>
<wgt id='1939'> +6.1522696e+01 </wgt>
<wgt id='1940'> +6.1111688e+01 </wgt>
<wgt id='1941'> +6.2437585e+01 </wgt>
<wgt id='1942'> +6.1782308e+01 </wgt>
<wgt id='1943'> +6.1278729e+01 </wgt>
<wgt id='1944'> +6.1260901e+01 </wgt>
<wgt id='1945'> +6.1460261e+01 </wgt>
<wgt id='1946'> +6.1455774e+01 </wgt>
<wgt id='1947'> +6.1641740e+01 </wgt>
<wgt id='1948'> +6.1432488e+01 </wgt>
<wgt id='1949'> +6.1489855e+01 </wgt>
<wgt id='1950'> +6.2043960e+01 </wgt>
<wgt id='1951'> +6.1853459e+01 </wgt>
<wgt id='1952'> +6.2971394e+01 </wgt>
<wgt id='1953'> +6.1617199e+01 </wgt>
<wgt id='1954'> +6.1514572e+01 </wgt>
<wgt id='1955'> +5.9604825e+01 </wgt>
<wgt id='1956'> +6.3537898e+01 </wgt>
<wgt id='1957'> +6.1075826e+01 </wgt>
<wgt id='1958'> +5.9265876e+01 </wgt>
<wgt id='1959'> +6.1146470e+01 </wgt>
<wgt id='1960'> +6.1063868e+01 </wgt>
<wgt id='1961'> +6.1184114e+01 </wgt>
<wgt id='1962'> +6.1365067e+01 </wgt>
<wgt id='1963'> +6.1121676e+01 </wgt>
<wgt id='1964'> +6.1033196e+01 </wgt>
<wgt id='1965'> +6.1114793e+01 </wgt>
<wgt id='1966'> +6.1020957e+01 </wgt>
<wgt id='1967'> +6.0730229e+01 </wgt>
<wgt id='1968'> +6.1076348e+01 </wgt>
<wgt id='1969'> +6.1036920e+01 </wgt>
<wgt id='1970'> +6.1116018e+01 </wgt>
<wgt id='1971'> +6.1061224e+01 </wgt>
<wgt id='1972'> +6.1040938e+01 </wgt>
<wgt id='1973'> +6.1113184e+01 </wgt>
<wgt id='1974'> +6.1118022e+01 </wgt>
<wgt id='1975'> +6.1044639e+01 </wgt>
<wgt id='1976'> +6.1054362e+01 </wgt>
<wgt id='1977'> +6.1211448e+01 </wgt>
<wgt id='1978'> +6.1081929e+01 </wgt>
<wgt id='1979'> +6.1118584e+01 </wgt>
<wgt id='1980'> +6.1110499e+01 </wgt>
<wgt id='1981'> +6.1178350e+01 </wgt>
<wgt id='1982'> +6.1063011e+01 </wgt>
<wgt id='1983'> +6.1074138e+01 </wgt>
<wgt id='1984'> +6.1115551e+01 </wgt>
<wgt id='1985'> +6.1162031e+01 </wgt>
<wgt id='1986'> +6.1063155e+01 </wgt>
<wgt id='1987'> +6.1070808e+01 </wgt>
<wgt id='1988'> +5.9102362e+01 </wgt>
<wgt id='1989'> +6.3275712e+01 </wgt>
<wgt id='1990'> +5.6258071e+01 </wgt>
<wgt id='1991'> +5.6183336e+01 </wgt>
<wgt id='1992'> +5.6332646e+01 </wgt>
<wgt id='1993'> +5.6258235e+01 </wgt>
<wgt id='1994'> +5.6257836e+01 </wgt>
<wgt id='1995'> +5.6334512e+01 </wgt>
<wgt id='1996'> +5.6182031e+01 </wgt>
<wgt id='1997'> +5.6593866e+01 </wgt>
<wgt id='1998'> +5.5929389e+01 </wgt>
<wgt id='1999'> +5.6135542e+01 </wgt>
<wgt id='2000'> +5.6382517e+01 </wgt>
<wgt id='2001'> +5.5754424e+01 </wgt>
<wgt id='2002'> +5.6814282e+01 </wgt>
<wgt id='2003'> +5.6111400e+01 </wgt>
<wgt id='2004'> +5.6407930e+01 </wgt>
<wgt id='2005'> +5.6471023e+01 </wgt>
<wgt id='2006'> +5.5949304e+01 </wgt>
<wgt id='2007'> +5.6570218e+01 </wgt>
<wgt id='2008'> +5.6085548e+01 </wgt>
<wgt id='2009'> +5.6438459e+01 </wgt>
<wgt id='2010'> +5.6020312e+01 </wgt>
<wgt id='2011'> +5.6274364e+01 </wgt>
<wgt id='2012'> +5.6260293e+01 </wgt>
<wgt id='2013'> +5.5625059e+01 </wgt>
<wgt id='2014'> +5.6859929e+01 </wgt>
<wgt id='2015'> +5.5850663e+01 </wgt>
<wgt id='2016'> +5.6679131e+01 </wgt>
<wgt id='2017'> +5.7350205e+01 </wgt>
<wgt id='2018'> +5.5239641e+01 </wgt>
<wgt id='2019'> +5.6258071e+01 </wgt>
<wgt id='2020'> +5.6222833e+01 </wgt>
<wgt id='2021'> +5.5392067e+01 </wgt>
<wgt id='2022'> +5.6235497e+01 </wgt>
<wgt id='2023'> +5.5557976e+01 </wgt>
<wgt id='2024'> +5.5778718e+01 </wgt>
<wgt id='2025'> +5.6613695e+01 </wgt>
<wgt id='2026'> +5.5945414e+01 </wgt>
<wgt id='2027'> +5.5902598e+01 </wgt>
<wgt id='2028'> +5.6416113e+01 </wgt>
<wgt id='2029'> +5.5405882e+01 </wgt>
<wgt id='2030'> +5.5497652e+01 </wgt>
<wgt id='2031'> +5.5693809e+01 </wgt>
<wgt id='2032'> +5.6012586e+01 </wgt>
<wgt id='2033'> +6.0747409e+01 </wgt>
<wgt id='2034'> +6.0161247e+01 </wgt>
<wgt id='2035'> +6.0305421e+01 </wgt>
<wgt id='2036'> +6.0180485e+01 </wgt>
<wgt id='2037'> +6.0286585e+01 </wgt>
<wgt id='2038'> +6.0282212e+01 </wgt>
<wgt id='2039'> +6.0184703e+01 </wgt>
<wgt id='2040'> +6.0646461e+01 </wgt>
<wgt id='2041'> +5.9832238e+01 </wgt>
<wgt id='2042'> +5.9856372e+01 </wgt>
<wgt id='2043'> +6.0622286e+01 </wgt>
<wgt id='2044'> +6.0470652e+01 </wgt>
<wgt id='2045'> +6.0000103e+01 </wgt>
<wgt id='2046'> +6.0177180e+01 </wgt>
<wgt id='2047'> +6.0282563e+01 </wgt>
<wgt id='2048'> +6.0234280e+01 </wgt>
<wgt id='2049'> +6.0034862e+01 </wgt>
<wgt id='2050'> +6.0256669e+01 </wgt>
<wgt id='2051'> +6.0219281e+01 </wgt>
<wgt id='2052'> +6.0175606e+01 </wgt>
<wgt id='2053'> +6.0303924e+01 </wgt>
<wgt id='2054'> +6.0717480e+01 </wgt>
<wgt id='2055'> +5.9771822e+01 </wgt>
<wgt id='2056'> +5.9756703e+01 </wgt>
<wgt id='2057'> +6.0728672e+01 </wgt>
<wgt id='2058'> +5.9181704e+01 </wgt>
<wgt id='2059'> +6.1277778e+01 </wgt>
<wgt id='2060'> +5.9774019e+01 </wgt>
<wgt id='2061'> +6.0725195e+01 </wgt>
<wgt id='2062'> +6.0641077e+01 </wgt>
<wgt id='2063'> +6.0432912e+01 </wgt>
<wgt id='2064'> +5.9406322e+01 </wgt>
<wgt id='2065'> +6.0398544e+01 </wgt>
<wgt id='2066'> +5.9910765e+01 </wgt>
<wgt id='2067'> +5.8780501e+01 </wgt>
<wgt id='2068'> +5.9858310e+01 </wgt>
<wgt id='2069'> +6.0125837e+01 </wgt>
<wgt id='2070'> +6.0320112e+01 </wgt>
<wgt id='2071'> +6.0541989e+01 </wgt>
<wgt id='2072'> +5.7963373e+01 </wgt>
<wgt id='2073'> +6.0091345e+01 </wgt>
<wgt id='2074'> +6.0303207e+01 </wgt>
<wgt id='2075'> +6.0769624e+01 </wgt>
<wgt id='2076'> +5.9215263e+01 </wgt>
<wgt id='2077'> +5.9209282e+01 </wgt>
<wgt id='2078'> +5.9203187e+01 </wgt>
<wgt id='2079'> +5.9196782e+01 </wgt>
<wgt id='2080'> +5.9190799e+01 </wgt>
<wgt id='2081'> +5.9184709e+01 </wgt>
<wgt id='2082'> +5.9178633e+01 </wgt>
<wgt id='2083'> +5.9172642e+01 </wgt>
<wgt id='2084'> +5.9166222e+01 </wgt>
<wgt id='2085'> +5.9160274e+01 </wgt>
<wgt id='2086'> +5.9154216e+01 </wgt>
<wgt id='2087'> +5.9148097e+01 </wgt>
<wgt id='2088'> +5.9141983e+01 </wgt>
<wgt id='2089'> +5.9135734e+01 </wgt>
<wgt id='2090'> +5.9129626e+01 </wgt>
<wgt id='2091'> +5.9123693e+01 </wgt>
<wgt id='2092'> +5.9117413e+01 </wgt>
<wgt id='2093'> +5.9111428e+01 </wgt>
<wgt id='2094'> +5.9105196e+01 </wgt>
<wgt id='2095'> +5.9099126e+01 </wgt>
<wgt id='2096'> +5.9092946e+01 </wgt>
<wgt id='2097'> +5.9086876e+01 </wgt>
<wgt id='2098'> +5.9080825e+01 </wgt>
<wgt id='2099'> +5.9074847e+01 </wgt>
<wgt id='2100'> +5.9068639e+01 </wgt>
<wgt id='2101'> +5.9062484e+01 </wgt>
<wgt id='2102'> +5.9056209e+01 </wgt>
<wgt id='2103'> +5.9050266e+01 </wgt>
<wgt id='2104'> +5.9044395e+01 </wgt>
<wgt id='2105'> +5.9037780e+01 </wgt>
<wgt id='2106'> +5.9031823e+01 </wgt>
<wgt id='2107'> +6.0343136e+01 </wgt>
<wgt id='2108'> +6.0275757e+01 </wgt>
<wgt id='2109'> +6.0409624e+01 </wgt>
<wgt id='2110'> +6.0204776e+01 </wgt>
<wgt id='2111'> +6.0545874e+01 </wgt>
<wgt id='2112'> +6.0662379e+01 </wgt>
<wgt id='2113'> +6.0455335e+01 </wgt>
<wgt id='2114'> +5.9988226e+01 </wgt>
<wgt id='2115'> +6.0191314e+01 </wgt>
<wgt id='2116'> +6.0400916e+01 </wgt>
<wgt id='2117'> +5.9958376e+01 </wgt>
<wgt id='2118'> +6.0637754e+01 </wgt>
<wgt id='2119'> +6.1160107e+01 </wgt>
<wgt id='2120'> +6.0451396e+01 </wgt>
<wgt id='2121'> +6.0872776e+01 </wgt>
<wgt id='2122'> +6.0093046e+01 </wgt>
<wgt id='2123'> +6.1030107e+01 </wgt>
<wgt id='2124'> +5.9599503e+01 </wgt>
<wgt id='2125'> +6.0408497e+01 </wgt>
<wgt id='2126'> +6.0608893e+01 </wgt>
<wgt id='2127'> +6.0995012e+01 </wgt>
<wgt id='2128'> +6.0391748e+01 </wgt>
<wgt id='2129'> +6.0529021e+01 </wgt>
<wgt id='2130'> +5.9776408e+01 </wgt>
<wgt id='2131'> +6.0084943e+01 </wgt>
<wgt id='2132'> +6.0510178e+01 </wgt>
<wgt id='2133'> +6.0328648e+01 </wgt>
<wgt id='2134'> +6.0352949e+01 </wgt>
<wgt id='2135'> +6.0415743e+01 </wgt>
<wgt id='2136'> +6.0382907e+01 </wgt>
<wgt id='2137'> +6.0449666e+01 </wgt>
<wgt id='2138'> +6.0269489e+01 </wgt>
<wgt id='2139'> +6.0361740e+01 </wgt>
<wgt id='2140'> +6.0398308e+01 </wgt>
<wgt id='2141'> +6.0388232e+01 </wgt>
<wgt id='2142'> +6.0393718e+01 </wgt>
<wgt id='2143'> +6.0380701e+01 </wgt>
<wgt id='2144'> +6.0391750e+01 </wgt>
<wgt id='2145'> +6.0401658e+01 </wgt>
<wgt id='2146'> +6.0343534e+01 </wgt>
<wgt id='2147'> +6.0299306e+01 </wgt>
<wgt id='2148'> +6.0359418e+01 </wgt>
<wgt id='2149'> +6.0377774e+01 </wgt>
<wgt id='2150'> +6.0255473e+01 </wgt>
<wgt id='2151'> +6.0352966e+01 </wgt>
<wgt id='2152'> +6.0380805e+01 </wgt>
<wgt id='2153'> +6.0262049e+01 </wgt>
<wgt id='2154'> +6.0378039e+01 </wgt>
<wgt id='2155'> +6.0384214e+01 </wgt>
<wgt id='2156'> +6.0305939e+01 </wgt>
<wgt id='2157'> +6.0340828e+01 </wgt>
<wgt id='2158'> +6.0392123e+01 </wgt>
<wgt id='2159'> +6.0404417e+01 </wgt>
<wgt id='2160'> +6.0334215e+01 </wgt>
<wgt id='2161'> +6.0311796e+01 </wgt>
<wgt id='2162'> +6.0296563e+01 </wgt>
<wgt id='2163'> +6.0380907e+01 </wgt>
<wgt id='2164'> +6.0356706e+01 </wgt>
<wgt id='2165'> +6.0261479e+01 </wgt>
<wgt id='2166'> +6.0301635e+01 </wgt>
<wgt id='2167'> +6.0310236e+01 </wgt>
<wgt id='2168'> +6.0345068e+01 </wgt>
<wgt id='2169'> +6.0353123e+01 </wgt>
<wgt id='2170'> +6.0358430e+01 </wgt>
<wgt id='2171'> +6.0350116e+01 </wgt>
<wgt id='2172'> +6.0325191e+01 </wgt>
<wgt id='2173'> +6.0337106e+01 </wgt>
<wgt id='2174'> +6.0364975e+01 </wgt>
<wgt id='2175'> +6.0350262e+01 </wgt>
<wgt id='2176'> +6.0402222e+01 </wgt>
<wgt id='2177'> +6.0322615e+01 </wgt>
<wgt id='2178'> +6.0393718e+01 </wgt>
<wgt id='2179'> +6.0396779e+01 </wgt>
<wgt id='2180'> +6.0327678e+01 </wgt>
<wgt id='2181'> +6.0351906e+01 </wgt>
<wgt id='2182'> +6.0336039e+01 </wgt>
<wgt id='2183'> +6.0337923e+01 </wgt>
<wgt id='2184'> +6.0365940e+01 </wgt>
<wgt id='2185'> +6.0345178e+01 </wgt>
<wgt id='2186'> +6.0336181e+01 </wgt>
<wgt id='2187'> +6.0418371e+01 </wgt>
<wgt id='2188'> +6.0343988e+01 </wgt>
<wgt id='2189'> +6.0366934e+01 </wgt>
<wgt id='2190'> +6.0319589e+01 </wgt>
<wgt id='2191'> +6.0309290e+01 </wgt>
<wgt id='2192'> +6.0305380e+01 </wgt>
<wgt id='2193'> +6.0365478e+01 </wgt>
<wgt id='2194'> +6.0268500e+01 </wgt>
<wgt id='2195'> +6.0311395e+01 </wgt>
<wgt id='2196'> +6.0314506e+01 </wgt>
<wgt id='2197'> +6.0354502e+01 </wgt>
<wgt id='2198'> +6.0322318e+01 </wgt>
<wgt id='2199'> +6.0333422e+01 </wgt>
<wgt id='2200'> +6.0323711e+01 </wgt>
<wgt id='2201'> +6.0322966e+01 </wgt>
<wgt id='2202'> +6.0348466e+01 </wgt>
<wgt id='2203'> +6.0329911e+01 </wgt>
<wgt id='2204'> +6.0350508e+01 </wgt>
<wgt id='2205'> +6.0336208e+01 </wgt>
<wgt id='2206'> +6.0325713e+01 </wgt>
<wgt id='2207'> +6.0345594e+01 </wgt>
<wgt id='2208'> +6.0342472e+01 </wgt>
<wgt id='2209'> +6.0338740e+01 </wgt>
<wgt id='2210'> +6.0343837e+01 </wgt>
<wgt id='2211'> +6.0343947e+01 </wgt>
<wgt id='2212'> +6.0345170e+01 </wgt>
<wgt id='2213'> +6.0343435e+01 </wgt>
<wgt id='2214'> +6.0340202e+01 </wgt>
<wgt id='2215'> +6.4596773e+01 </wgt>
<wgt id='2216'> +6.7083176e+01 </wgt>
<wgt id='2217'> +6.5102054e+01 </wgt>
<wgt id='2218'> +6.6715961e+01 </wgt>
<wgt id='2219'> +6.2804914e+01 </wgt>
<wgt id='2220'> +6.7038452e+01 </wgt>
<wgt id='2221'> +6.6393278e+01 </wgt>
<wgt id='2222'> +6.3930498e+01 </wgt>
<wgt id='2223'> +6.4493760e+01 </wgt>
<wgt id='2224'> +6.6455199e+01 </wgt>
<wgt id='2225'> +6.3828189e+01 </wgt>
<wgt id='2226'> +6.0259992e+01 </wgt>
<wgt id='2227'> +6.5397083e+01 </wgt>
<wgt id='2228'> +6.4165143e+01 </wgt>
<wgt id='2229'> +6.4991121e+01 </wgt>
<wgt id='2230'> +6.6983330e+01 </wgt>
<wgt id='2231'> +6.5610034e+01 </wgt>
<wgt id='2232'> +6.6113991e+01 </wgt>
<wgt id='2233'> +6.6201010e+01 </wgt>
<wgt id='2234'> +6.5102525e+01 </wgt>
<wgt id='2235'> +6.8629369e+01 </wgt>
<wgt id='2236'> +6.5243540e+01 </wgt>
<wgt id='2237'> +6.3186773e+01 </wgt>
<wgt id='2238'> +6.7315350e+01 </wgt>
<wgt id='2239'> +6.4505383e+01 </wgt>
<wgt id='2240'> +6.3270933e+01 </wgt>
<wgt id='2241'> +6.5123158e+01 </wgt>
<wgt id='2242'> +6.5787574e+01 </wgt>
<wgt id='2243'> +6.3709790e+01 </wgt>
<wgt id='2244'> +6.7308119e+01 </wgt>
<wgt id='2245'> +6.7000247e+01 </wgt>
<wgt id='2246'> +6.3336407e+01 </wgt>
<wgt id='2247'> +6.2888417e+01 </wgt>
<wgt id='2248'> +6.1933244e+01 </wgt>
<wgt id='2249'> +6.3846763e+01 </wgt>
<wgt id='2250'> +6.5954964e+01 </wgt>
<wgt id='2251'> +6.2966652e+01 </wgt>
<wgt id='2252'> +6.5904528e+01 </wgt>
<wgt id='2253'> +6.3818277e+01 </wgt>
<wgt id='2254'> +6.5043297e+01 </wgt>
<wgt id='2255'> +6.2470410e+01 </wgt>
<wgt id='2256'> +6.4995205e+01 </wgt>
<wgt id='2257'> +6.3628107e+01 </wgt>
<wgt id='2258'> +6.2804883e+01 </wgt>
<wgt id='2259'> +6.4902826e+01 </wgt>
<wgt id='2260'> +6.3588324e+01 </wgt>
<wgt id='2261'> +6.5613777e+01 </wgt>
<wgt id='2262'> +6.4157860e+01 </wgt>
<wgt id='2263'> +6.4981330e+01 </wgt>
<wgt id='2264'> +6.4020416e+01 </wgt>
<wgt id='2265'> +6.3149989e+01 </wgt>
<wgt id='2266'> +6.3455296e+01 </wgt>
<wgt id='2267'> +6.3488026e+01 </wgt>
<wgt id='2268'> +6.4915658e+01 </wgt>
<wgt id='2269'> +6.3934781e+01 </wgt>
<wgt id='2270'> +6.2454657e+01 </wgt>
<wgt id='2271'> +6.5322318e+01 </wgt>
<wgt id='2272'> +6.4119807e+01 </wgt>
<wgt id='2273'> +6.2944085e+01 </wgt>
<wgt id='2274'> +6.7431185e+01 </wgt>
<wgt id='2275'> +6.3973925e+01 </wgt>
<wgt id='2276'> +6.3806868e+01 </wgt>
<wgt id='2277'> +6.5977854e+01 </wgt>
<wgt id='2278'> +6.2126710e+01 </wgt>
<wgt id='2279'> +6.4774797e+01 </wgt>
<wgt id='2280'> +6.3918155e+01 </wgt>
<wgt id='2281'> +6.3638181e+01 </wgt>
<wgt id='2282'> +7.0080257e+01 </wgt>
<wgt id='2283'> +6.4563850e+01 </wgt>
<wgt id='2284'> +6.2277684e+01 </wgt>
<wgt id='2285'> +6.1725188e+01 </wgt>
<wgt id='2286'> +6.2283358e+01 </wgt>
<wgt id='2287'> +6.5493011e+01 </wgt>
<wgt id='2288'> +6.4325219e+01 </wgt>
<wgt id='2289'> +6.5561309e+01 </wgt>
<wgt id='2290'> +6.4211644e+01 </wgt>
<wgt id='2291'> +6.2529363e+01 </wgt>
<wgt id='2292'> +6.3191245e+01 </wgt>
<wgt id='2293'> +6.4765200e+01 </wgt>
<wgt id='2294'> +6.3959705e+01 </wgt>
<wgt id='2295'> +6.3411641e+01 </wgt>
<wgt id='2296'> +6.4232226e+01 </wgt>
<wgt id='2297'> +6.2172224e+01 </wgt>
<wgt id='2298'> +6.8277237e+01 </wgt>
<wgt id='2299'> +6.3551031e+01 </wgt>
<wgt id='2300'> +6.4908430e+01 </wgt>
<wgt id='2301'> +6.3701810e+01 </wgt>
<wgt id='2302'> +6.5272710e+01 </wgt>
<wgt id='2303'> +6.4361831e+01 </wgt>
<wgt id='2304'> +6.7955396e+01 </wgt>
<wgt id='2305'> +6.3463990e+01 </wgt>
<wgt id='2306'> +6.4111189e+01 </wgt>
<wgt id='2307'> +6.2965245e+01 </wgt>
<wgt id='2308'> +6.5560166e+01 </wgt>
<wgt id='2309'> +6.6174051e+01 </wgt>
<wgt id='2310'> +6.4501269e+01 </wgt>
<wgt id='2311'> +6.4875639e+01 </wgt>
<wgt id='2312'> +6.4602792e+01 </wgt>
<wgt id='2313'> +6.3429486e+01 </wgt>
<wgt id='2314'> +6.4624905e+01 </wgt>
<wgt id='2315'> +6.7845143e+01 </wgt>
<wgt id='2316'> +6.3142867e+01 </wgt>
<wgt id='2317'> +6.5641427e+01 </wgt>
<wgt id='2318'> +6.2099468e+01 </wgt>
<wgt id='2319'> +5.6409447e+01 </wgt>
<wgt id='2320'> +7.3759639e+01 </wgt>
<wgt id='2321'> +6.4693638e+01 </wgt>
<wgt id='2322'> +7.2458159e+01 </wgt>
</rwgt>
</event>
<event>
12      2 +6.1139206e+01 3.15665900e+02 7.56146200e-03 9.94690400e-02
        2 -1    0    0  504    0 -0.0000000000e+00 +0.0000000000e+00 +5.0528791258e+02 5.0528791258e+02 0.0000000000e+00 0.0000e+00 1.0000e+00
       21 -1    0    0  501  504 +0.0000000000e+00 -0.0000000000e+00 -3.4037526939e+02 3.4037526939e+02 0.0000000000e+00 0.0000e+00 -1.0000e+00
       -6  2    1    2    0  503 +1.0339245701e+02 +2.2414307980e+02 +2.7542266396e+02 4.1141133537e+02 1.8019856453e+02 0.0000e+00 0.0000e+00
      -24  2    3    3    0    0 +1.3893388031e+02 +1.3643767716e+02 +2.0661439398e+02 2.9433238406e+02 7.7615601908e+01 0.0000e+00 0.0000e+00
        6  2    1    2  501    0 -1.2409894418e+02 -2.3135970152e+02 -1.7972080729e+02 3.6165039199e+02 1.7194062352e+02 0.0000e+00 0.0000e+00
      -15  1    5    5    0    0 -2.4166235993e+01 +6.4292638537e+00 -1.7584353353e+01 3.0570441256e+01 0.0000000000e+00 0.0000e+00 1.0000e+00
       16  1    5    5    0    0 -1.9926538408e+01 +4.5596484387e+00 -4.6630089720e+01 5.0913874279e+01 0.0000000000e+00 0.0000e+00 -1.0000e+00
        5  1    5    5  501    0 -8.0006169779e+01 -2.4234861381e+02 -1.1550636422e+02 2.8016607645e+02 4.1800000000e+00 0.0000e+00 -1.0000e+00
        1  1    4    4  502    0 +3.6499275004e+01 +1.4396348993e+01 +8.5895463082e+01 9.4432423024e+01 0.0000000000e+00 0.0000e+00 -1.0000e+00
       -2  1    4    4    0  502 +1.0243460530e+02 +1.2204132817e+02 +1.2071893090e+02 1.9989996104e+02 0.0000000000e+00 0.0000e+00 1.0000e+00
       -5  1    3    3    0  503 -3.5541423298e+01 +8.7705402643e+01 +6.8808269981e+01 1.1707895131e+02 4.1800000000e+00 0.0000e+00 1.0000e+00
        2  1    1    2  503    0 +2.0706487172e+01 +7.2166217170e+00 +6.9210786519e+01 7.2601454604e+01 0.0000000000e+00 0.0000e+00 1.0000e+00
<scales pt_clust_6="13000.00000" pt_clust_7="13000.00000" pt_clust_8="13000.00000" pt_clust_9="13000.00000" pt_clust_10="13000.00000" pt_clust_11="13000.00000" pt_clust_12="21.92802"></scales>
<mgrwt>
<rscale>  2 0.31449940E+03</rscale>
<asrwt>  1 0.21928024E+02</asrwt>
<pdfrwt beam="1">  1       21 0.52365426E-01 0.31102573E+03</pdfrwt>
<pdfrwt beam="2">  2        2       21 0.77736602E-01 0.66440779E-01 0.21928024E+02 0.31566589E+03</pdfrwt>
<totfact> 0.34417521E+00</totfact>
</mgrwt>
<clustering>
<clus scale="   19.206">  6  7 -1 -1</clus>
<clus scale="   21.928">  1 12  2 -1</clus>
<clus scale="   77.616">  9 10 -1 -1</clus>
<clus scale="  171.941">  6  8 -1 -1</clus>
<clus scale="  180.199">  9 11 -1 -1</clus>
<clus scale="  311.026">  2  6  1 -1</clus>
<clus scale="  311.026">  2  6  1 -1</clus>
</clustering>
<rwgt>
<wgt id='dummy'> +6.1139206e+01 </wgt>
<wgt id='ctGRe_0p_cQj18_0p_cQj38_0p_cQj11_0p_cjj31_0p_ctu8_0p_ctd8_0p_ctj8_0p_cQu8_0p_cQd8_0p_ctu1_0p_ctd1_0p_ctj1_0p_cQu1_0p_cQd1_0p'> +6.1139206e+01 </wgt>
<wgt id='ctGRe_1p_cQj18_0p_cQj38_0p_cQj11_0p_cjj31_0p_ctu8_0p_ctd8_0p_ctj8_0p_cQu8_0p_cQd8_0p_ctu1_0p_ctd1_0p_ctj1_0p_cQu1_0p_cQd1_0p'> +5.7403686e+01 </wgt>
<wgt id='ctGRe_0p_cQj18_1p_cQj38_0p_cQj11_0p_cjj31_0p_ctu8_0p_ctd8_0p_ctj8_0p_cQu8_0p_cQd8_0p_ctu1_0p_ctd1_0p_ctj1_0p_cQu1_0p_cQd1_0p'> +6.1139206e+01 </wgt>
<wgt id='ctGRe_0p_cQj18_0p_cQj38_1p_cQj11_0p_cjj31_0p_ctu8_0p_ctd8_0p_ctj8_0p_cQu8_0p_cQd8_0p_ctu1_0p_ctd1_0p_ctj1_0p_cQu1_0p_cQd1_0p'> +6.1139206e+01 </wgt>
<wgt id='ctGRe_0p_cQj18_0p_cQj38_0p_cQj11_1p_cjj31_0p_ctu8_0p_ctd8_0p_ctj8_0p_cQu8_0p_cQd8_0p_ctu1_0p_ctd1_0p_ctj1_0p_cQu1_0p_cQd1_0p'> +6.1139206e+01 </wgt>
<wgt id='ctGRe_0p_cQj18_0p_cQj38_0p_cQj11_0p_cjj31_1p_ctu8_0p_ctd8_0p_ctj8_0p_cQu8_0p_cQd8_0p_ctu1_0p_ctd1_0p_ctj1_0p_cQu1_0p_cQd1_0p'> +6.1139206e+01 </wgt>
<wgt id='ctGRe_0p_cQj18_0p_cQj38_0p_cQj11_0p_cjj31_0p_ctu8_1p_ctd8_0p_ctj8_0p_cQu8_0p_cQd8_0p_ctu1_0p_ctd1_0p_ctj1_0p_cQu1_0p_cQd1_0p'> +6.1139206e+01 </wgt>
<wgt id='ctGRe_0p_cQj18_0p_cQj38_0p_cQj11_0p_cjj31_0p_ctu8_0p_ctd8_1p_ctj8_0p_cQu8_0p_cQd8_0p_ctu1_0p_ctd1_0p_ctj1_0p_cQu1_0p_cQd1_0p'> +6.1139206e+01 </wgt>
<wgt id='ctGRe_0p_cQj18_0p_cQj38_0p_cQj11_0p_cjj31_0p_ctu8_0p_ctd8_0p_ctj8_1p_cQu8_0p_cQd8_0p_ctu1_0p_ctd1_0p_ctj1_0p_cQu1_0p_cQd1_0p'> +6.1139206e+01 </wgt>
<wgt id='ctGRe_0p_cQj18_0p_cQj38_0p_cQj11_0p_cjj31_0p_ctu8_0p_ctd8_0p_ctj8_0p_cQu8_1p_cQd8_0p_ctu1_0p_ctd1_0p_ctj1_0p_cQu1_0p_cQd1_0p'> +6.1979120e+01 </wgt>
<wgt id='ctGRe_0p_cQj18_0p_cQj38_0p_cQj11_0p_cjj31_0p_ctu8_0p_ctd8_0p_ctj8_0p_cQu8_0p_cQd8_1p_ctu1_0p_ctd1_0p_ctj1_0p_cQu1_0p_cQd1_0p'> +6.1139206e+01 </wgt>
<wgt id='ctGRe_0p_cQj18_0p_cQj38_0p_cQj11_0p_cjj31_0p_ctu8_0p_ctd8_0p_ctj8_0p_cQu8_0p_cQd8_0p_ctu1_1p_ctd1_0p_ctj1_0p_cQu1_0p_cQd1_0p'> +6.1186349e+01 </wgt>
<wgt id='ctGRe_0p_cQj18_0p_cQj38_0p_cQj11_0p_cjj31_0p_ctu8_0p_ctd8_0p_ctj8_0p_cQu8_0p_cQd8_0p_ctu1_0p_ctd1_1p_ctj1_0p_cQu1_0p_cQd1_0p'> +6.1139206e+01 </wgt>
<wgt id='ctGRe_0p_cQj18_0p_cQj38_0p_cQj11_0p_cjj31_0p_ctu8_0p_ctd8_0p_ctj8_0p_cQu8_0p_cQd8_0p_ctu1_0p_ctd1_0p_ctj1_1p_cQu1_0p_cQd1_0p'> +6.1139206e+01 </wgt>
<wgt id='ctGRe_0p_cQj18_0p_cQj38_0p_cQj11_0p_cjj31_0p_ctu8_0p_ctd8_0p_ctj8_0p_cQu8_0p_cQd8_0p_ctu1_0p_ctd1_0p_ctj1_0p_cQu1_1p_cQd1_0p'> +5.8489759e+01 </wgt>
<wgt id='ctGRe_0p_cQj18_0p_cQj38_0p_cQj11_0p_cjj31_0p_ctu8_0p_ctd8_0p_ctj8_0p_cQu8_0p_cQd8_0p_ctu1_0p_ctd1_0p_ctj1_0p_cQu1_0p_cQd1_1p'> +6.1139206e+01 </wgt>
<wgt id='ctGRe_2p_cQj18_0p_cQj38_0p_cQj11_0p_cjj31_0p_ctu8_0p_ctd8_0p_ctj8_0p_cQu8_0p_cQd8_0p_ctu1_0p_ctd1_0p_ctj1_0p_cQu1_0p_cQd1_0p'> +5.5261687e+01 </wgt>
<wgt id='ctGRe_1p_cQj18_1p_cQj38_0p_cQj11_0p_cjj31_0p_ctu8_0p_ctd8_0p_ctj8_0p_cQu8_0p_cQd8_0p_ctu1_0p_ctd1_0p_ctj1_0p_cQu1_0p_cQd1_0p'> +5.7403686e+01 </wgt>
<wgt id='ctGRe_1p_cQj18_0p_cQj38_1p_cQj11_0p_cjj31_0p_ctu8_0p_ctd8_0p_ctj8_0p_cQu8_0p_cQd8_0p_ctu1_0p_ctd1_0p_ctj1_0p_cQu1_0p_cQd1_0p'> +5.7403686e+01 </wgt>
<wgt id='ctGRe_1p_cQj18_0p_cQj38_0p_cQj11_1p_cjj31_0p_ctu8_0p_ctd8_0p_ctj8_0p_cQu8_0p_cQd8_0p_ctu1_0p_ctd1_0p_ctj1_0p_cQu1_0p_cQd1_0p'> +5.7403686e+01 </wgt>
<wgt id='ctGRe_1p_cQj18_0p_cQj38_0p_cQj11_0p_cjj31_1p_ctu8_0p_ctd8_0p_ctj8_0p_cQu8_0p_cQd8_0p_ctu1_0p_ctd1_0p_ctj1_0p_cQu1_0p_cQd1_0p'> +5.7403686e+01 </wgt>
<wgt id='ctGRe_1p_cQj18_0p_cQj38_0p_cQj11_0p_cjj31_0p_ctu8_1p_ctd8_0p_ctj8_0p_cQu8_0p_cQd8_0p_ctu1_0p_ctd1_0p_ctj1_0p_cQu1_0p_cQd1_0p'> +5.7403686e+01 </wgt>
<wgt id='ctGRe_1p_cQj18_0p_cQj38_0p_cQj11_0p_cjj31_0p_ctu8_0p_ctd8_1p_ctj8_0p_cQu8_0p_cQd8_0p_ctu1_0p_ctd1_0p_ctj1_0p_cQu1_0p_cQd1_0p'> +5.7403686e+01 </wgt>
<wgt id='ctGRe_1p_cQj18_0p_cQj38_0p_cQj11_0p_cjj31_0p_ctu8_0p_ctd8_0p_ctj8_1p_cQu8_0p_cQd8_0p_ctu1_0p_ctd1_0p_ctj1_0p_cQu1_0p_cQd1_0p'> +5.7403686e+01 </wgt>
<wgt id='ctGRe_1p_cQj18_0p_cQj38_0p_cQj11_0p_cjj31_0p_ctu8_0p_ctd8_0p_ctj8_0p_cQu8_1p_cQd8_0p_ctu1_0p_ctd1_0p_ctj1_0p_cQu1_0p_cQd1_0p'> +5.8328547e+01 </wgt>
<wgt id='ctGRe_1p_cQj18_0p_cQj38_0p_cQj11_0p_cjj31_0p_ctu8_0p_ctd8_0p_ctj8_0p_cQu8_0p_cQd8_1p_ctu1_0p_ctd1_0p_ctj1_0p_cQu1_0p_cQd1_0p'> +5.7403686e+01 </wgt>
<wgt id='ctGRe_1p_cQj18_0p_cQj38_0p_cQj11_0p_cjj31_0p_ctu8_0p_ctd8_0p_ctj8_0p_cQu8_0p_cQd8_0p_ctu1_1p_ctd1_0p_ctj1_0p_cQu1_0p_cQd1_0p'> +5.7478587e+01 </wgt>
<wgt id='ctGRe_1p_cQj18_0p_cQj38_0p_cQj11_0p_cjj31_0p_ctu8_0p_ctd8_0p_ctj8_0p_cQu8_0p_cQd8_0p_ctu1_0p_ctd1_1p_ctj1_0p_cQu1_0p_cQd1_0p'> +5.7403686e+01 </wgt>
<wgt id='ctGRe_1p_cQj18_0p_cQj38_0p_cQj11_0p_cjj31_0p_ctu8_0p_ctd8_0p_ctj8_0p_cQu8_0p_cQd8_0p_ctu1_0p_ctd1_0p_ctj1_1p_cQu1_0p_cQd1_0p'> +5.7403686e+01 </wgt>
<wgt id='ctGRe_1p_cQj18_0p_cQj38_0p_cQj11_0p_cjj31_0p_ctu8_0p_ctd8_0p_ctj8_0p_cQu8_0p_cQd8_0p_ctu1_0p_ctd1_0p_ctj1_0p_cQu1_1p_cQd1_0p'> +5.4403933e+01 </wgt>
<wgt id='ctGRe_1p_cQj18_0p_cQj38_0p_cQj11_0p_cjj31_0p_ctu8_0p_ctd8_0p_ctj8_0p_cQu8_0p_cQd8_0p_ctu1_0p_ctd1_0p_ctj1_0p_cQu1_0p_cQd1_1p'> +5.7403686e+01 </wgt>
<wgt id='ctGRe_0p_cQj18_2p_cQj38_0p_cQj11_0p_cjj31_0p_ctu8_0p_ctd8_0p_ctj8_0p_cQu8_0p_cQd8_0p_ctu1_0p_ctd1_0p_ctj1_0p_cQu1_0p_cQd1_0p'> +6.1139206e+01 </wgt>
<wgt id='ctGRe_0p_cQj18_1p_cQj38_1p_cQj11_0p_cjj31_0p_ctu8_0p_ctd8_0p_ctj8_0p_cQu8_0p_cQd8_0p_ctu1_0p_ctd1_0p_ctj1_0p_cQu1_0p_cQd1_0p'> +6.1139206e+01 </wgt>
<wgt id='ctGRe_0p_cQj18_1p_cQj38_0p_cQj11_1p_cjj31_0p_ctu8_0p_ctd8_0p_ctj8_0p_cQu8_0p_cQd8_0p_ctu1_0p_ctd1_0p_ctj1_0p_cQu1_0p_cQd1_0p'> +6.1139206e+01 </wgt>
<wgt id='ctGRe_0p_cQj18_1p_cQj38_0p_cQj11_0p_cjj31_1p_ctu8_0p_ctd8_0p_ctj8_0p_cQu8_0p_cQd8_0p_ctu1_0p_ctd1_0p_ctj1_0p_cQu1_0p_cQd1_0p'> +6.1139206e+01 </wgt>
<wgt id='ctGRe_0p_cQj18_1p_cQj38_0p_cQj11_0p_cjj31_0p_ctu8_1p_ctd8_0p_ctj8_0p_cQu8_0p_cQd8_0p_ctu1_0p_ctd1_0p_ctj1_0p_cQu1_0p_cQd1_0p'> +6.1139206e+01 </wgt>
<wgt id='ctGRe_0p_cQj18_1p_cQj38_0p_cQj11_0p_cjj31_0p_ctu8_0p_ctd8_1p_ctj8_0p_cQu8_0p_cQd8_0p_ctu1_0p_ctd1_0p_ctj1_0p_cQu1_0p_cQd1_0p'> +6.1139206e+01 </wgt>
<wgt id='ctGRe_0p_cQj18_1p_cQj38_0p_cQj11_0p_cjj31_0p_ctu8_0p_ctd8_0p_ctj8_1p_cQu8_0p_cQd8_0p_ctu1_0p_ctd1_0p_ctj1_0p_cQu1_0p_cQd1_0p'> +6.1139206e+01 </wgt>
<wgt id='ctGRe_0p_cQj18_1p_cQj38_0p_cQj11_0p_cjj31_0p_ctu8_0p_ctd8_0p_ctj8_0p_cQu8_1p_cQd8_0p_ctu1_0p_ctd1_0p_ctj1_0p_cQu1_0p_cQd1_0p'> +6.1979120e+01 </wgt>
<wgt id='ctGRe_0p_cQj18_1p_cQj38_0p_cQj11_0p_cjj31_0p_ctu8_0p_ctd8_0p_ctj8_0p_cQu8_0p_cQd8_1p_ctu1_0p_ctd1_0p_ctj1_0p_cQu1_0p_cQd1_0p'> +6.1139206e+01 </wgt>
<wgt id='ctGRe_0p_cQj18_1p_cQj38_0p_cQj11_0p_cjj31_0p_ctu8_0p_ctd8_0p_ctj8_0p_cQu8_0p_cQd8_0p_ctu1_1p_ctd1_0p_ctj1_0p_cQu1_0p_cQd1_0p'> +6.1186349e+01 </wgt>
<wgt id='ctGRe_0p_cQj18_1p_cQj38_0p_cQj11_0p_cjj31_0p_ctu8_0p_ctd8_0p_ctj8_0p_cQu8_0p_cQd8_0p_ctu1_0p_ctd1_1p_ctj1_0p_cQu1_0p_cQd1_0p'> +6.1139206e+01 </wgt>
<wgt id='ctGRe_0p_cQj18_1p_cQj38_0p_cQj11_0p_cjj31_0p_ctu8_0p_ctd8_0p_ctj8_0p_cQu8_0p_cQd8_0p_ctu1_0p_ctd1_0p_ctj1_1p_cQu1_0p_cQd1_0p'> +6.1139206e+01 </wgt>
<wgt id='ctGRe_0p_cQj18_1p_cQj38_0p_cQj11_0p_cjj31_0p_ctu8_0p_ctd8_0p_ctj8_0p_cQu8_0p_cQd8_0p_ctu1_0p_ctd1_0p_ctj1_0p_cQu1_1p_cQd1_0p'> +5.8489759e+01 </wgt>
<wgt id='ctGRe_0p_cQj18_1p_cQj38_0p_cQj11_0p_cjj31_0p_ctu8_0p_ctd8_0p_ctj8_0p_cQu8_0p_cQd8_0p_ctu1_0p_ctd1_0p_ctj1_0p_cQu1_0p_cQd1_1p'> +6.1139206e+01 </wgt>
<wgt id='ctGRe_0p_cQj18_0p_cQj38_2p_cQj11_0p_cjj31_0p_ctu8_0p_ctd8_0p_ctj8_0p_cQu8_0p_cQd8_0p_ctu1_0p_ctd1_0p_ctj1_0p_cQu1_0p_cQd1_0p'> +6.1139206e+01 </wgt>
<wgt id='ctGRe_0p_cQj18_0p_cQj38_1p_cQj11_1p_cjj31_0p_ctu8_0p_ctd8_0p_ctj8_0p_cQu8_0p_cQd8_0p_ctu1_0p_ctd1_0p_ctj1_0p_cQu1_0p_cQd1_0p'> +6.1139206e+01 </wgt>
<wgt id='ctGRe_0p_cQj18_0p_cQj38_1p_cQj11_0p_cjj31_1p_ctu8_0p_ctd8_0p_ctj8_0p_cQu8_0p_cQd8_0p_ctu1_0p_ctd1_0p_ctj1_0p_cQu1_0p_cQd1_0p'> +6.1139206e+01 </wgt>
<wgt id='ctGRe_0p_cQj18_0p_cQj38_1p_cQj11_0p_cjj31_0p_ctu8_1p_ctd8_0p_ctj8_0p_cQu8_0p_cQd8_0p_ctu1_0p_ctd1_0p_ctj1_0p_cQu1_0p_cQd1_0p'> +6.1139206e+01 </wgt>
<wgt id='ctGRe_0p_cQj18_0p_cQj38_1p_cQj11_0p_cjj31_0p_ctu8_0p_ctd8_1p_ctj8_0p_cQu8_0p_cQd8_0p_ctu1_0p_ctd1_0p_ctj1_0p_cQu1_0p_cQd1_0p'> +6.1139206e+01 </wgt>
<wgt id='ctGRe_0p_cQj18_0p_cQj38_1p_cQj11_0p_cjj31_0p_ctu8_0p_ctd8_0p_ctj8_1p_cQu8_0p_cQd8_0p_ctu1_0p_ctd1_0p_ctj1_0p_cQu1_0p_cQd1_0p'> +6.1139206e+01 </wgt>
<wgt id='ctGRe_0p_cQj18_0p_cQj38_1p_cQj11_0p_cjj31_0p_ctu8_0p_ctd8_0p_ctj8_0p_cQu8_1p_cQd8_0p_ctu1_0p_ctd1_0p_ctj1_0p_cQu1_0p_cQd1_0p'> +6.1979120e+01 </wgt>
<wgt id='ctGRe_0p_cQj18_0p_cQj38_1p_cQj11_0p_cjj31_0p_ctu8_0p_ctd8_0p_ctj8_0p_cQu8_0p_cQd8_1p_ctu1_0p_ctd1_0p_ctj1_0p_cQu1_0p_cQd1_0p'> +6.1139206e+01 </wgt>
<wgt id='ctGRe_0p_cQj18_0p_cQj38_1p_cQj11_0p_cjj31_0p_ctu8_0p_ctd8_0p_ctj8_0p_cQu8_0p_cQd8_0p_ctu1_1p_ctd1_0p_ctj1_0p_cQu1_0p_cQd1_0p'> +6.1186349e+01 </wgt>
<wgt id='ctGRe_0p_cQj18_0p_cQj38_1p_cQj11_0p_cjj31_0p_ctu8_0p_ctd8_0p_ctj8_0p_cQu8_0p_cQd8_0p_ctu1_0p_ctd1_1p_ctj1_0p_cQu1_0p_cQd1_0p'> +6.1139206e+01 </wgt>
<wgt id='ctGRe_0p_cQj18_0p_cQj38_1p_cQj11_0p_cjj31_0p_ctu8_0p_ctd8_0p_ctj8_0p_cQu8_0p_cQd8_0p_ctu1_0p_ctd1_0p_ctj1_1p_cQu1_0p_cQd1_0p'> +6.1139206e+01 </wgt>
<wgt id='ctGRe_0p_cQj18_0p_cQj38_1p_cQj11_0p_cjj31_0p_ctu8_0p_ctd8_0p_ctj8_0p_cQu8_0p_cQd8_0p_ctu1_0p_ctd1_0p_ctj1_0p_cQu1_1p_cQd1_0p'> +5.8489759e+01 </wgt>
<wgt id='ctGRe_0p_cQj18_0p_cQj38_1p_cQj11_0p_cjj31_0p_ctu8_0p_ctd8_0p_ctj8_0p_cQu8_0p_cQd8_0p_ctu1_0p_ctd1_0p_ctj1_0p_cQu1_0p_cQd1_1p'> +6.1139206e+01 </wgt>
<wgt id='ctGRe_0p_cQj18_0p_cQj38_0p_cQj11_2p_cjj31_0p_ctu8_0p_ctd8_0p_ctj8_0p_cQu8_0p_cQd8_0p_ctu1_0p_ctd1_0p_ctj1_0p_cQu1_0p_cQd1_0p'> +6.1139206e+01 </wgt>
<wgt id='ctGRe_0p_cQj18_0p_cQj38_0p_cQj11_1p_cjj31_1p_ctu8_0p_ctd8_0p_ctj8_0p_cQu8_0p_cQd8_0p_ctu1_0p_ctd1_0p_ctj1_0p_cQu1_0p_cQd1_0p'> +6.1139206e+01 </wgt>
<wgt id='ctGRe_0p_cQj18_0p_cQj38_0p_cQj11_1p_cjj31_0p_ctu8_1p_ctd8_0p_ctj8_0p_cQu8_0p_cQd8_0p_ctu1_0p_ctd1_0p_ctj1_0p_cQu1_0p_cQd1_0p'> +6.1139206e+01 </wgt>
<wgt id='ctGRe_0p_cQj18_0p_cQj38_0p_cQj11_1p_cjj31_0p_ctu8_0p_ctd8_1p_ctj8_0p_cQu8_0p_cQd8_0p_ctu1_0p_ctd1_0p_ctj1_0p_cQu1_0p_cQd1_0p'> +6.1139206e+01 </wgt>
<wgt id='ctGRe_0p_cQj18_0p_cQj38_0p_cQj11_1p_cjj31_0p_ctu8_0p_ctd8_0p_ctj8_1p_cQu8_0p_cQd8_0p_ctu1_0p_ctd1_0p_ctj1_0p_cQu1_0p_cQd1_0p'> +6.1139206e+01 </wgt>
<wgt id='ctGRe_0p_cQj18_0p_cQj38_0p_cQj11_1p_cjj31_0p_ctu8_0p_ctd8_0p_ctj8_0p_cQu8_1p_cQd8_0p_ctu1_0p_ctd1_0p_ctj1_0p_cQu1_0p_cQd1_0p'> +6.1979120e+01 </wgt>
<wgt id='ctGRe_0p_cQj18_0p_cQj38_0p_cQj11_1p_cjj31_0p_ctu8_0p_ctd8_0p_ctj8_0p_cQu8_0p_cQd8_1p_ctu1_0p_ctd1_0p_ctj1_0p_cQu1_0p_cQd1_0p'> +6.1139206e+01 </wgt>
<wgt id='ctGRe_0p_cQj18_0p_cQj38_0p_cQj11_1p_cjj31_0p_ctu8_0p_ctd8_0p_ctj8_0p_cQu8_0p_cQd8_0p_ctu1_1p_ctd1_0p_ctj1_0p_cQu1_0p_cQd1_0p'> +6.1186349e+01 </wgt>
<wgt id='ctGRe_0p_cQj18_0p_cQj38_0p_cQj11_1p_cjj31_0p_ctu8_0p_ctd8_0p_ctj8_0p_cQu8_0p_cQd8_0p_ctu1_0p_ctd1_1p_ctj1_0p_cQu1_0p_cQd1_0p'> +6.1139206e+01 </wgt>
<wgt id='ctGRe_0p_cQj18_0p_cQj38_0p_cQj11_1p_cjj31_0p_ctu8_0p_ctd8_0p_ctj8_0p_cQu8_0p_cQd8_0p_ctu1_0p_ctd1_0p_ctj1_1p_cQu1_0p_cQd1_0p'> +6.1139206e+01 </wgt>
<wgt id='ctGRe_0p_cQj18_0p_cQj38_0p_cQj11_1p_cjj31_0p_ctu8_0p_ctd8_0p_ctj8_0p_cQu8_0p_cQd8_0p_ctu1_0p_ctd1_0p_ctj1_0p_cQu1_1p_cQd1_0p'> +5.8489759e+01 </wgt>
<wgt id='ctGRe_0p_cQj18_0p_cQj38_0p_cQj11_1p_cjj31_0p_ctu8_0p_ctd8_0p_ctj8_0p_cQu8_0p_cQd8_0p_ctu1_0p_ctd1_0p_ctj1_0p_cQu1_0p_cQd1_1p'> +6.1139206e+01 </wgt>
<wgt id='ctGRe_0p_cQj18_0p_cQj38_0p_cQj11_0p_cjj31_2p_ctu8_0p_ctd8_0p_ctj8_0p_cQu8_0p_cQd8_0p_ctu1_0p_ctd1_0p_ctj1_0p_cQu1_0p_cQd1_0p'> +6.1139206e+01 </wgt>
<wgt id='ctGRe_0p_cQj18_0p_cQj38_0p_cQj11_0p_cjj31_1p_ctu8_1p_ctd8_0p_ctj8_0p_cQu8_0p_cQd8_0p_ctu1_0p_ctd1_0p_ctj1_0p_cQu1_0p_cQd1_0p'> +6.1139206e+01 </wgt>
<wgt id='ctGRe_0p_cQj18_0p_cQj38_0p_cQj11_0p_cjj31_1p_ctu8_0p_ctd8_1p_ctj8_0p_cQu8_0p_cQd8_0p_ctu1_0p_ctd1_0p_ctj1_0p_cQu1_0p_cQd1_0p'> +6.1139206e+01 </wgt>
<wgt id='ctGRe_0p_cQj18_0p_cQj38_0p_cQj11_0p_cjj31_1p_ctu8_0p_ctd8_0p_ctj8_1p_cQu8_0p_cQd8_0p_ctu1_0p_ctd1_0p_ctj1_0p_cQu1_0p_cQd1_0p'> +6.1139206e+01 </wgt>
<wgt id='ctGRe_0p_cQj18_0p_cQj38_0p_cQj11_0p_cjj31_1p_ctu8_0p_ctd8_0p_ctj8_0p_cQu8_1p_cQd8_0p_ctu1_0p_ctd1_0p_ctj1_0p_cQu1_0p_cQd1_0p'> +6.1979120e+01 </wgt>
<wgt id='ctGRe_0p_cQj18_0p_cQj38_0p_cQj11_0p_cjj31_1p_ctu8_0p_ctd8_0p_ctj8_0p_cQu8_0p_cQd8_1p_ctu1_0p_ctd1_0p_ctj1_0p_cQu1_0p_cQd1_0p'> +6.1139206e+01 </wgt>
<wgt id='ctGRe_0p_cQj18_0p_cQj38_0p_cQj11_0p_cjj31_1p_ctu8_0p_ctd8_0p_ctj8_0p_cQu8_0p_cQd8_0p_ctu1_1p_ctd1_0p_ctj1_0p_cQu1_0p_cQd1_0p'> +6.1186349e+01 </wgt>
<wgt id='ctGRe_0p_cQj18_0p_cQj38_0p_cQj11_0p_cjj31_1p_ctu8_0p_ctd8_0p_ctj8_0p_cQu8_0p_cQd8_0p_ctu1_0p_ctd1_1p_ctj1_0p_cQu1_0p_cQd1_0p'> +6.1139206e+01 </wgt>
<wgt id='ctGRe_0p_cQj18_0p_cQj38_0p_cQj11_0p_cjj31_1p_ctu8_0p_ctd8_0p_ctj8_0p_cQu8_0p_cQd8_0p_ctu1_0p_ctd1_0p_ctj1_1p_cQu1_0p_cQd1_0p'> +6.1139206e+01 </wgt>
<wgt id='ctGRe_0p_cQj18_0p_cQj38_0p_cQj11_0p_cjj31_1p_ctu8_0p_ctd8_0p_ctj8_0p_cQu8_0p_cQd8_0p_ctu1_0p_ctd1_0p_ctj1_0p_cQu1_1p_cQd1_0p'> +5.8489759e+01 </wgt>
<wgt id='ctGRe_0p_cQj18_0p_cQj38_0p_cQj11_0p_cjj31_1p_ctu8_0p_ctd8_0p_ctj8_0p_cQu8_0p_cQd8_0p_ctu1_0p_ctd1_0p_ctj1_0p_cQu1_0p_cQd1_1p'> +6.1139206e+01 </wgt>
<wgt id='ctGRe_0p_cQj18_0p_cQj38_0p_cQj11_0p_cjj31_0p_ctu8_2p_ctd8_0p_ctj8_0p_cQu8_0p_cQd8_0p_ctu1_0p_ctd1_0p_ctj1_0p_cQu1_0p_cQd1_0p'> +6.1139206e+01 </wgt>
<wgt id='ctGRe_0p_cQj18_0p_cQj38_0p_cQj11_0p_cjj31_0p_ctu8_1p_ctd8_1p_ctj8_0p_cQu8_0p_cQd8_0p_ctu1_0p_ctd1_0p_ctj1_0p_cQu1_0p_cQd1_0p'> +6.1139206e+01 </wgt>
<wgt id='ctGRe_0p_cQj18_0p_cQj38_0p_cQj11_0p_cjj31_0p_ctu8_1p_ctd8_0p_ctj8_1p_cQu8_0p_cQd8_0p_ctu1_0p_ctd1_0p_ctj1_0p_cQu1_0p_cQd1_0p'> +6.1139206e+01 </wgt>
<wgt id='ctGRe_0p_cQj18_0p_cQj38_0p_cQj11_0p_cjj31_0p_ctu8_1p_ctd8_0p_ctj8_0p_cQu8_1p_cQd8_0p_ctu1_0p_ctd1_0p_ctj1_0p_cQu1_0p_cQd1_0p'> +6.1979120e+01 </wgt>
<wgt id='ctGRe_0p_cQj18_0p_cQj38_0p_cQj11_0p_cjj31_0p_ctu8_1p_ctd8_0p_ctj8_0p_cQu8_0p_cQd8_1p_ctu1_0p_ctd1_0p_ctj1_0p_cQu1_0p_cQd1_0p'> +6.1139206e+01 </wgt>
<wgt id='ctGRe_0p_cQj18_0p_cQj38_0p_cQj11_0p_cjj31_0p_ctu8_1p_ctd8_0p_ctj8_0p_cQu8_0p_cQd8_0p_ctu1_1p_ctd1_0p_ctj1_0p_cQu1_0p_cQd1_0p'> +6.1186349e+01 </wgt>
<wgt id='ctGRe_0p_cQj18_0p_cQj38_0p_cQj11_0p_cjj31_0p_ctu8_1p_ctd8_0p_ctj8_0p_cQu8_0p_cQd8_0p_ctu1_0p_ctd1_1p_ctj1_0p_cQu1_0p_cQd1_0p'> +6.1139206e+01 </wgt>
<wgt id='ctGRe_0p_cQj18_0p_cQj38_0p_cQj11_0p_cjj31_0p_ctu8_1p_ctd8_0p_ctj8_0p_cQu8_0p_cQd8_0p_ctu1_0p_ctd1_0p_ctj1_1p_cQu1_0p_cQd1_0p'> +6.1139206e+01 </wgt>
<wgt id='ctGRe_0p_cQj18_0p_cQj38_0p_cQj11_0p_cjj31_0p_ctu8_1p_ctd8_0p_ctj8_0p_cQu8_0p_cQd8_0p_ctu1_0p_ctd1_0p_ctj1_0p_cQu1_1p_cQd1_0p'> +5.8489759e+01 </wgt>
<wgt id='ctGRe_0p_cQj18_0p_cQj38_0p_cQj11_0p_cjj31_0p_ctu8_1p_ctd8_0p_ctj8_0p_cQu8_0p_cQd8_0p_ctu1_0p_ctd1_0p_ctj1_0p_cQu1_0p_cQd1_1p'> +6.1139206e+01 </wgt>
<wgt id='ctGRe_0p_cQj18_0p_cQj38_0p_cQj11_0p_cjj31_0p_ctu8_0p_ctd8_2p_ctj8_0p_cQu8_0p_cQd8_0p_ctu1_0p_ctd1_0p_ctj1_0p_cQu1_0p_cQd1_0p'> +6.1139206e+01 </wgt>
<wgt id='ctGRe_0p_cQj18_0p_cQj38_0p_cQj11_0p_cjj31_0p_ctu8_0p_ctd8_1p_ctj8_1p_cQu8_0p_cQd8_0p_ctu1_0p_ctd1_0p_ctj1_0p_cQu1_0p_cQd1_0p'> +6.1139206e+01 </wgt>
<wgt id='ctGRe_0p_cQj18_0p_cQj38_0p_cQj11_0p_cjj31_0p_ctu8_0p_ctd8_1p_ctj8_0p_cQu8_1p_cQd8_0p_ctu1_0p_ctd1_0p_ctj1_0p_cQu1_0p_cQd1_0p'> +6.1979120e+01 </wgt>
<wgt id='ctGRe_0p_cQj18_0p_cQj38_0p_cQj11_0p_cjj31_0p_ctu8_0p_ctd8_1p_ctj8_0p_cQu8_0p_cQd8_1p_ctu1_0p_ctd1_0p_ctj1_0p_cQu1_0p_cQd1_0p'> +6.1139206e+01 </wgt>
<wgt id='ctGRe_0p_cQj18_0p_cQj38_0p_cQj11_0p_cjj31_0p_ctu8_0p_ctd8_1p_ctj8_0p_cQu8_0p_cQd8_0p_ctu1_1p_ctd1_0p_ctj1_0p_cQu1_0p_cQd1_0p'> +6.1186349e+01 </wgt>
<wgt id='ctGRe_0p_cQj18_0p_cQj38_0p_cQj11_0p_cjj31_0p_ctu8_0p_ctd8_1p_ctj8_0p_cQu8_0p_cQd8_0p_ctu1_0p_ctd1_1p_ctj1_0p_cQu1_0p_cQd1_0p'> +6.1139206e+01 </wgt>
<wgt id='ctGRe_0p_cQj18_0p_cQj38_0p_cQj11_0p_cjj31_0p_ctu8_0p_ctd8_1p_ctj8_0p_cQu8_0p_cQd8_0p_ctu1_0p_ctd1_0p_ctj1_1p_cQu1_0p_cQd1_0p'> +6.1139206e+01 </wgt>
<wgt id='ctGRe_0p_cQj18_0p_cQj38_0p_cQj11_0p_cjj31_0p_ctu8_0p_ctd8_1p_ctj8_0p_cQu8_0p_cQd8_0p_ctu1_0p_ctd1_0p_ctj1_0p_cQu1_1p_cQd1_0p'> +5.8489759e+01 </wgt>
<wgt id='ctGRe_0p_cQj18_0p_cQj38_0p_cQj11_0p_cjj31_0p_ctu8_0p_ctd8_1p_ctj8_0p_cQu8_0p_cQd8_0p_ctu1_0p_ctd1_0p_ctj1_0p_cQu1_0p_cQd1_1p'> +6.1139206e+01 </wgt>
<wgt id='ctGRe_0p_cQj18_0p_cQj38_0p_cQj11_0p_cjj31_0p_ctu8_0p_ctd8_0p_ctj8_2p_cQu8_0p_cQd8_0p_ctu1_0p_ctd1_0p_ctj1_0p_cQu1_0p_cQd1_0p'> +6.1139206e+01 </wgt>
<wgt id='ctGRe_0p_cQj18_0p_cQj38_0p_cQj11_0p_cjj31_0p_ctu8_0p_ctd8_0p_ctj8_1p_cQu8_1p_cQd8_0p_ctu1_0p_ctd1_0p_ctj1_0p_cQu1_0p_cQd1_0p'> +6.1979120e+01 </wgt>
<wgt id='ctGRe_0p_cQj18_0p_cQj38_0p_cQj11_0p_cjj31_0p_ctu8_0p_ctd8_0p_ctj8_1p_cQu8_0p_cQd8_1p_ctu1_0p_ctd1_0p_ctj1_0p_cQu1_0p_cQd1_0p'> +6.1139206e+01 </wgt>
<wgt id='ctGRe_0p_cQj18_0p_cQj38_0p_cQj11_0p_cjj31_0p_ctu8_0p_ctd8_0p_ctj8_1p_cQu8_0p_cQd8_0p_ctu1_1p_ctd1_0p_ctj1_0p_cQu1_0p_cQd1_0p'> +6.1186349e+01 </wgt>
<wgt id='ctGRe_0p_cQj18_0p_cQj38_0p_cQj11_0p_cjj31_0p_ctu8_0p_ctd8_0p_ctj8_1p_cQu8_0p_cQd8_0p_ctu1_0p_ctd1_1p_ctj1_0p_cQu1_0p_cQd1_0p'> +6.1139206e+01 </wgt>
<wgt id='ctGRe_0p_cQj18_0p_cQj38_0p_cQj11_0p_cjj31_0p_ctu8_0p_ctd8_0p_ctj8_1p_cQu8_0p_cQd8_0p_ctu1_0p_ctd1_0p_ctj1_1p_cQu1_0p_cQd1_0p'> +6.1139206e+01 </wgt>
<wgt id='ctGRe_0p_cQj18_0p_cQj38_0p_cQj11_0p_cjj31_0p_ctu8_0p_ctd8_0p_ctj8_1p_cQu8_0p_cQd8_0p_ctu1_0p_ctd1_0p_ctj1_0p_cQu1_1p_cQd1_0p'> +5.8489759e+01 </wgt>
<wgt id='ctGRe_0p_cQj18_0p_cQj38_0p_cQj11_0p_cjj31_0p_ctu8_0p_ctd8_0p_ctj8_1p_cQu8_0p_cQd8_0p_ctu1_0p_ctd1_0p_ctj1_0p_cQu1_0p_cQd1_1p'> +6.1139206e+01 </wgt>
<wgt id='ctGRe_0p_cQj18_0p_cQj38_0p_cQj11_0p_cjj31_0p_ctu8_0p_ctd8_0p_ctj8_0p_cQu8_2p_cQd8_0p_ctu1_0p_ctd1_0p_ctj1_0p_cQu1_0p_cQd1_0p'> +6.3234718e+01 </wgt>
<wgt id='ctGRe_0p_cQj18_0p_cQj38_0p_cQj11_0p_cjj31_0p_ctu8_0p_ctd8_0p_ctj8_0p_cQu8_1p_cQd8_1p_ctu1_0p_ctd1_0p_ctj1_0p_cQu1_0p_cQd1_0p'> +6.1979120e+01 </wgt>
<wgt id='ctGRe_0p_cQj18_0p_cQj38_0p_cQj11_0p_cjj31_0p_ctu8_0p_ctd8_0p_ctj8_0p_cQu8_1p_cQd8_0p_ctu1_1p_ctd1_0p_ctj1_0p_cQu1_0p_cQd1_0p'> +6.2028202e+01 </wgt>
<wgt id='ctGRe_0p_cQj18_0p_cQj38_0p_cQj11_0p_cjj31_0p_ctu8_0p_ctd8_0p_ctj8_0p_cQu8_1p_cQd8_0p_ctu1_0p_ctd1_1p_ctj1_0p_cQu1_0p_cQd1_0p'> +6.1979120e+01 </wgt>
<wgt id='ctGRe_0p_cQj18_0p_cQj38_0p_cQj11_0p_cjj31_0p_ctu8_0p_ctd8_0p_ctj8_0p_cQu8_1p_cQd8_0p_ctu1_0p_ctd1_0p_ctj1_1p_cQu1_0p_cQd1_0p'> +6.1979120e+01 </wgt>
<wgt id='ctGRe_0p_cQj18_0p_cQj38_0p_cQj11_0p_cjj31_0p_ctu8_0p_ctd8_0p_ctj8_0p_cQu8_1p_cQd8_0p_ctu1_0p_ctd1_0p_ctj1_0p_cQu1_1p_cQd1_0p'> +5.9344489e+01 </wgt>
<wgt id='ctGRe_0p_cQj18_0p_cQj38_0p_cQj11_0p_cjj31_0p_ctu8_0p_ctd8_0p_ctj8_0p_cQu8_1p_cQd8_0p_ctu1_0p_ctd1_0p_ctj1_0p_cQu1_0p_cQd1_1p'> +6.1979120e+01 </wgt>
<wgt id='ctGRe_0p_cQj18_0p_cQj38_0p_cQj11_0p_cjj31_0p_ctu8_0p_ctd8_0p_ctj8_0p_cQu8_0p_cQd8_2p_ctu1_0p_ctd1_0p_ctj1_0p_cQu1_0p_cQd1_0p'> +6.1139206e+01 </wgt>
<wgt id='ctGRe_0p_cQj18_0p_cQj38_0p_cQj11_0p_cjj31_0p_ctu8_0p_ctd8_0p_ctj8_0p_cQu8_0p_cQd8_1p_ctu1_1p_ctd1_0p_ctj1_0p_cQu1_0p_cQd1_0p'> +6.1186349e+01 </wgt>
<wgt id='ctGRe_0p_cQj18_0p_cQj38_0p_cQj11_0p_cjj31_0p_ctu8_0p_ctd8_0p_ctj8_0p_cQu8_0p_cQd8_1p_ctu1_0p_ctd1_1p_ctj1_0p_cQu1_0p_cQd1_0p'> +6.1139206e+01 </wgt>
<wgt id='ctGRe_0p_cQj18_0p_cQj38_0p_cQj11_0p_cjj31_0p_ctu8_0p_ctd8_0p_ctj8_0p_cQu8_0p_cQd8_1p_ctu1_0p_ctd1_0p_ctj1_1p_cQu1_0p_cQd1_0p'> +6.1139206e+01 </wgt>
<wgt id='ctGRe_0p_cQj18_0p_cQj38_0p_cQj11_0p_cjj31_0p_ctu8_0p_ctd8_0p_ctj8_0p_cQu8_0p_cQd8_1p_ctu1_0p_ctd1_0p_ctj1_0p_cQu1_1p_cQd1_0p'> +5.8489759e+01 </wgt>
<wgt id='ctGRe_0p_cQj18_0p_cQj38_0p_cQj11_0p_cjj31_0p_ctu8_0p_ctd8_0p_ctj8_0p_cQu8_0p_cQd8_1p_ctu1_0p_ctd1_0p_ctj1_0p_cQu1_0p_cQd1_1p'> +6.1139206e+01 </wgt>
<wgt id='ctGRe_0p_cQj18_0p_cQj38_0p_cQj11_0p_cjj31_0p_ctu8_0p_ctd8_0p_ctj8_0p_cQu8_0p_cQd8_0p_ctu1_2p_ctd1_0p_ctj1_0p_cQu1_0p_cQd1_0p'> +6.1241185e+01 </wgt>
<wgt id='ctGRe_0p_cQj18_0p_cQj38_0p_cQj11_0p_cjj31_0p_ctu8_0p_ctd8_0p_ctj8_0p_cQu8_0p_cQd8_0p_ctu1_1p_ctd1_1p_ctj1_0p_cQu1_0p_cQd1_0p'> +6.1186349e+01 </wgt>
<wgt id='ctGRe_0p_cQj18_0p_cQj38_0p_cQj11_0p_cjj31_0p_ctu8_0p_ctd8_0p_ctj8_0p_cQu8_0p_cQd8_0p_ctu1_1p_ctd1_0p_ctj1_1p_cQu1_0p_cQd1_0p'> +6.1186349e+01 </wgt>
<wgt id='ctGRe_0p_cQj18_0p_cQj38_0p_cQj11_0p_cjj31_0p_ctu8_0p_ctd8_0p_ctj8_0p_cQu8_0p_cQd8_0p_ctu1_1p_ctd1_0p_ctj1_0p_cQu1_1p_cQd1_0p'> +5.8469472e+01 </wgt>
<wgt id='ctGRe_0p_cQj18_0p_cQj38_0p_cQj11_0p_cjj31_0p_ctu8_0p_ctd8_0p_ctj8_0p_cQu8_0p_cQd8_0p_ctu1_1p_ctd1_0p_ctj1_0p_cQu1_0p_cQd1_1p'> +6.1186349e+01 </wgt>
<wgt id='ctGRe_0p_cQj18_0p_cQj38_0p_cQj11_0p_cjj31_0p_ctu8_0p_ctd8_0p_ctj8_0p_cQu8_0p_cQd8_0p_ctu1_0p_ctd1_2p_ctj1_0p_cQu1_0p_cQd1_0p'> +6.1139206e+01 </wgt>
<wgt id='ctGRe_0p_cQj18_0p_cQj38_0p_cQj11_0p_cjj31_0p_ctu8_0p_ctd8_0p_ctj8_0p_cQu8_0p_cQd8_0p_ctu1_0p_ctd1_1p_ctj1_1p_cQu1_0p_cQd1_0p'> +6.1139206e+01 </wgt>
<wgt id='ctGRe_0p_cQj18_0p_cQj38_0p_cQj11_0p_cjj31_0p_ctu8_0p_ctd8_0p_ctj8_0p_cQu8_0p_cQd8_0p_ctu1_0p_ctd1_1p_ctj1_0p_cQu1_1p_cQd1_0p'> +5.8489759e+01 </wgt>
<wgt id='ctGRe_0p_cQj18_0p_cQj38_0p_cQj11_0p_cjj31_0p_ctu8_0p_ctd8_0p_ctj8_0p_cQu8_0p_cQd8_0p_ctu1_0p_ctd1_1p_ctj1_0p_cQu1_0p_cQd1_1p'> +6.1139206e+01 </wgt>
<wgt id='ctGRe_0p_cQj18_0p_cQj38_0p_cQj11_0p_cjj31_0p_ctu8_0p_ctd8_0p_ctj8_0p_cQu8_0p_cQd8_0p_ctu1_0p_ctd1_0p_ctj1_2p_cQu1_0p_cQd1_0p'> +6.1139206e+01 </wgt>
<wgt id='ctGRe_0p_cQj18_0p_cQj38_0p_cQj11_0p_cjj31_0p_ctu8_0p_ctd8_0p_ctj8_0p_cQu8_0p_cQd8_0p_ctu1_0p_ctd1_0p_ctj1_1p_cQu1_1p_cQd1_0p'> +5.8489759e+01 </wgt>
<wgt id='ctGRe_0p_cQj18_0p_cQj38_0p_cQj11_0p_cjj31_0p_ctu8_0p_ctd8_0p_ctj8_0p_cQu8_0p_cQd8_0p_ctu1_0p_ctd1_0p_ctj1_1p_cQu1_0p_cQd1_1p'> +6.1139206e+01 </wgt>
<wgt id='ctGRe_0p_cQj18_0p_cQj38_0p_cQj11_0p_cjj31_0p_ctu8_0p_ctd8_0p_ctj8_0p_cQu8_0p_cQd8_0p_ctu1_0p_ctd1_0p_ctj1_0p_cQu1_2p_cQd1_0p'> +5.7165849e+01 </wgt>
<wgt id='ctGRe_0p_cQj18_0p_cQj38_0p_cQj11_0p_cjj31_0p_ctu8_0p_ctd8_0p_ctj8_0p_cQu8_0p_cQd8_0p_ctu1_0p_ctd1_0p_ctj1_0p_cQu1_1p_cQd1_1p'> +5.8489759e+01 </wgt>
<wgt id='ctGRe_0p_cQj18_0p_cQj38_0p_cQj11_0p_cjj31_0p_ctu8_0p_ctd8_0p_ctj8_0p_cQu8_0p_cQd8_0p_ctu1_0p_ctd1_0p_ctj1_0p_cQu1_0p_cQd1_2p'> +6.1139206e+01 </wgt>
<wgt id='1001'> +6.1139206e+01 </wgt>
<wgt id='1002'> +4.7396963e+01 </wgt>
<wgt id='1003'> +4.7395902e+01 </wgt>
<wgt id='1004'> +6.1619564e+01 </wgt>
<wgt id='1005'> +4.2580638e+01 </wgt>
<wgt id='1006'> +5.1699694e+01 </wgt>
<wgt id='1007'> +4.0606056e+01 </wgt>
<wgt id='1008'> +4.0605191e+01 </wgt>
<wgt id='1009'> +5.2082517e+01 </wgt>
<wgt id='1010'> +3.6667906e+01 </wgt>
<wgt id='1011'> +7.3472333e+01 </wgt>
<wgt id='1012'> +5.6076092e+01 </wgt>
<wgt id='1013'> +5.6074763e+01 </wgt>
<wgt id='1014'> +7.4088947e+01 </wgt>
<wgt id='1015'> +5.0072275e+01 </wgt>
<wgt id='1016'> +5.5643945e+01 </wgt>
<wgt id='1017'> +4.3318612e+01 </wgt>
<wgt id='1018'> +4.3317660e+01 </wgt>
<wgt id='1019'> +5.6074763e+01 </wgt>
<wgt id='1020'> +3.8990181e+01 </wgt>
<wgt id='1021'> +4.7052867e+01 </wgt>
<wgt id='1022'> +3.7112039e+01 </wgt>
<wgt id='1023'> +3.7111264e+01 </wgt>
<wgt id='1024'> +4.7395902e+01 </wgt>
<wgt id='1025'> +3.3576019e+01 </wgt>
<wgt id='1026'> +6.6868556e+01 </wgt>
<wgt id='1027'> +5.1250930e+01 </wgt>
<wgt id='1028'> +5.1249737e+01 </wgt>
<wgt id='1029'> +6.7422096e+01 </wgt>
<wgt id='1030'> +4.5850114e+01 </wgt>
<wgt id='1031'> +6.7474181e+01 </wgt>
<wgt id='1032'> +5.2083702e+01 </wgt>
<wgt id='1033'> +5.2082517e+01 </wgt>
<wgt id='1034'> +6.8012797e+01 </wgt>
<wgt id='1035'> +4.6708137e+01 </wgt>
<wgt id='1036'> +5.7056588e+01 </wgt>
<wgt id='1037'> +4.4621291e+01 </wgt>
<wgt id='1038'> +4.4620325e+01 </wgt>
<wgt id='1039'> +5.7486251e+01 </wgt>
<wgt id='1040'> +4.0222263e+01 </wgt>
<wgt id='1041'> +8.1085213e+01 </wgt>
<wgt id='1042'> +6.1621046e+01 </wgt>
<wgt id='1043'> +6.1619564e+01 </wgt>
<wgt id='1044'> +8.1775920e+01 </wgt>
<wgt id='1045'> +5.4925967e+01 </wgt>
<wgt id='1046'> +7.1248900e+01 </wgt>
<wgt id='1047'> +5.3568136e+01 </wgt>
<wgt id='1048'> +6.1139206e+01 </wgt>
<wgt id='1049'> +6.1089369e+01 </wgt>
<wgt id='1050'> +6.0992064e+01 </wgt>
<wgt id='1051'> +6.1246721e+01 </wgt>
<wgt id='1052'> +6.1229691e+01 </wgt>
<wgt id='1053'> +6.1091524e+01 </wgt>
<wgt id='1054'> +6.1232982e+01 </wgt>
<wgt id='1055'> +6.1005807e+01 </wgt>
<wgt id='1056'> +6.1145989e+01 </wgt>
<wgt id='1057'> +6.1082008e+01 </wgt>
<wgt id='1058'> +6.1120250e+01 </wgt>
<wgt id='1059'> +6.1279499e+01 </wgt>
<wgt id='1060'> +6.1069274e+01 </wgt>
<wgt id='1061'> +6.1300755e+01 </wgt>
<wgt id='1062'> +6.1387969e+01 </wgt>
<wgt id='1063'> +6.1295977e+01 </wgt>
<wgt id='1064'> +6.1283846e+01 </wgt>
<wgt id='1065'> +6.1422534e+01 </wgt>
<wgt id='1066'> +6.0885088e+01 </wgt>
<wgt id='1067'> +6.0914567e+01 </wgt>
<wgt id='1068'> +6.1163147e+01 </wgt>
<wgt id='1069'> +6.0858240e+01 </wgt>
<wgt id='1070'> +6.1193614e+01 </wgt>
<wgt id='1071'> +6.1182743e+01 </wgt>
<wgt id='1072'> +6.1073543e+01 </wgt>
<wgt id='1073'> +6.1128894e+01 </wgt>
<wgt id='1074'> +6.1064817e+01 </wgt>
<wgt id='1075'> +6.0861474e+01 </wgt>
<wgt id='1076'> +6.1214296e+01 </wgt>
<wgt id='1077'> +6.0821385e+01 </wgt>
<wgt id='1078'> +6.1139735e+01 </wgt>
<wgt id='1079'> +6.0905619e+01 </wgt>
<wgt id='1080'> +6.1229688e+01 </wgt>
<wgt id='1081'> +6.1040481e+01 </wgt>
<wgt id='1082'> +6.1024631e+01 </wgt>
<wgt id='1083'> +6.1109142e+01 </wgt>
<wgt id='1084'> +6.1269325e+01 </wgt>
<wgt id='1085'> +6.1153071e+01 </wgt>
<wgt id='1086'> +6.1049635e+01 </wgt>
<wgt id='1087'> +6.1115036e+01 </wgt>
<wgt id='1088'> +6.1079408e+01 </wgt>
<wgt id='1089'> +6.1133597e+01 </wgt>
<wgt id='1090'> +6.1195150e+01 </wgt>
<wgt id='1091'> +6.1120263e+01 </wgt>
<wgt id='1092'> +6.1194985e+01 </wgt>
<wgt id='1093'> +6.1115724e+01 </wgt>
<wgt id='1094'> +6.1128129e+01 </wgt>
<wgt id='1095'> +6.1126140e+01 </wgt>
<wgt id='1096'> +6.1062004e+01 </wgt>
<wgt id='1097'> +6.1110855e+01 </wgt>
<wgt id='1098'> +6.1094123e+01 </wgt>
<wgt id='1099'> +6.1114596e+01 </wgt>
<wgt id='1100'> +6.1191220e+01 </wgt>
<wgt id='1101'> +6.1114474e+01 </wgt>
<wgt id='1102'> +6.1149636e+01 </wgt>
<wgt id='1103'> +6.1156157e+01 </wgt>
<wgt id='1104'> +6.1066076e+01 </wgt>
<wgt id='1105'> +6.1183019e+01 </wgt>
<wgt id='1106'> +6.1160385e+01 </wgt>
<wgt id='1107'> +6.1171682e+01 </wgt>
<wgt id='1108'> +6.1146161e+01 </wgt>
<wgt id='1109'> +6.1125697e+01 </wgt>
<wgt id='1110'> +6.1227316e+01 </wgt>
<wgt id='1111'> +6.1143834e+01 </wgt>
<wgt id='1112'> +6.1141046e+01 </wgt>
<wgt id='1113'> +6.1199231e+01 </wgt>
<wgt id='1114'> +6.1113469e+01 </wgt>
<wgt id='1115'> +6.1161280e+01 </wgt>
<wgt id='1116'> +6.1152924e+01 </wgt>
<wgt id='1117'> +6.1129607e+01 </wgt>
<wgt id='1118'> +6.1148850e+01 </wgt>
<wgt id='1119'> +6.1134714e+01 </wgt>
<wgt id='1120'> +6.1137613e+01 </wgt>
<wgt id='1121'> +6.1123649e+01 </wgt>
<wgt id='1122'> +6.1105134e+01 </wgt>
<wgt id='1123'> +6.1127685e+01 </wgt>
<wgt id='1124'> +6.1133794e+01 </wgt>
<wgt id='1125'> +6.1193512e+01 </wgt>
<wgt id='1126'> +6.1148650e+01 </wgt>
<wgt id='1127'> +6.1121047e+01 </wgt>
<wgt id='1128'> +6.1147061e+01 </wgt>
<wgt id='1129'> +6.1119629e+01 </wgt>
<wgt id='1130'> +6.1166103e+01 </wgt>
<wgt id='1131'> +6.1152571e+01 </wgt>
<wgt id='1132'> +6.1134434e+01 </wgt>
<wgt id='1133'> +6.1143376e+01 </wgt>
<wgt id='1134'> +6.1134550e+01 </wgt>
<wgt id='1135'> +6.1123147e+01 </wgt>
<wgt id='1136'> +6.1143531e+01 </wgt>
<wgt id='1137'> +6.1116267e+01 </wgt>
<wgt id='1138'> +6.1158916e+01 </wgt>
<wgt id='1139'> +6.1130200e+01 </wgt>
<wgt id='1140'> +6.1167388e+01 </wgt>
<wgt id='1141'> +6.1136090e+01 </wgt>
<wgt id='1142'> +6.1140030e+01 </wgt>
<wgt id='1143'> +6.1142623e+01 </wgt>
<wgt id='1144'> +6.1119480e+01 </wgt>
<wgt id='1145'> +6.1164012e+01 </wgt>
<wgt id='1146'> +6.1134388e+01 </wgt>
<wgt id='1147'> +6.1153405e+01 </wgt>
<wgt id='1148'> +6.1139206e+01 </wgt>
<wgt id='1149'> +5.8637567e+01 </wgt>
<wgt id='1150'> +6.4044177e+01 </wgt>
<wgt id='1151'> +6.1139206e+01 </wgt>
<wgt id='1152'> +6.1849584e+01 </wgt>
<wgt id='1153'> +6.0246520e+01 </wgt>
<wgt id='1154'> +6.0363475e+01 </wgt>
<wgt id='1155'> +6.1752516e+01 </wgt>
<wgt id='1156'> +6.0836723e+01 </wgt>
<wgt id='1157'> +6.3760619e+01 </wgt>
<wgt id='1158'> +6.0983184e+01 </wgt>
<wgt id='1159'> +6.0767150e+01 </wgt>
<wgt id='1160'> +6.0839443e+01 </wgt>
<wgt id='1161'> +6.2017415e+01 </wgt>
<wgt id='1162'> +6.1558537e+01 </wgt>
<wgt id='1163'> +6.2671824e+01 </wgt>
<wgt id='1164'> +6.0612288e+01 </wgt>
<wgt id='1165'> +6.1403040e+01 </wgt>
<wgt id='1166'> +5.8991830e+01 </wgt>
<wgt id='1167'> +6.0714717e+01 </wgt>
<wgt id='1168'> +6.2102025e+01 </wgt>
<wgt id='1169'> +6.1400736e+01 </wgt>
<wgt id='1170'> +5.9112675e+01 </wgt>
<wgt id='1171'> +5.9844939e+01 </wgt>
<wgt id='1172'> +5.9975873e+01 </wgt>
<wgt id='1173'> +5.8806718e+01 </wgt>
<wgt id='1174'> +5.9735321e+01 </wgt>
<wgt id='1175'> +6.1045228e+01 </wgt>
<wgt id='1176'> +6.0639071e+01 </wgt>
<wgt id='1177'> +6.0181906e+01 </wgt>
<wgt id='1178'> +5.9146412e+01 </wgt>
<wgt id='1179'> +6.1779683e+01 </wgt>
<wgt id='1180'> +6.1617655e+01 </wgt>
<wgt id='1181'> +6.1987785e+01 </wgt>
<wgt id='1182'> +6.1697089e+01 </wgt>
<wgt id='1183'> +6.2866070e+01 </wgt>
<wgt id='1184'> +6.0754079e+01 </wgt>
<wgt id='1185'> +6.2783958e+01 </wgt>
<wgt id='1186'> +6.0395248e+01 </wgt>
<wgt id='1187'> +6.1671044e+01 </wgt>
<wgt id='1188'> +6.0310493e+01 </wgt>
<wgt id='1189'> +6.1018535e+01 </wgt>
<wgt id='1190'> +6.0845745e+01 </wgt>
<wgt id='1191'> +6.1291714e+01 </wgt>
<wgt id='1192'> +6.1187505e+01 </wgt>
<wgt id='1193'> +6.2438876e+01 </wgt>
<wgt id='1194'> +6.1497107e+01 </wgt>
<wgt id='1195'> +6.2083789e+01 </wgt>
<wgt id='1196'> +6.1107164e+01 </wgt>
<wgt id='1197'> +6.1305959e+01 </wgt>
<wgt id='1198'> +6.1688438e+01 </wgt>
<wgt id='1199'> +6.1256764e+01 </wgt>
<wgt id='1200'> +6.0335326e+01 </wgt>
<wgt id='1201'> +6.1724250e+01 </wgt>
<wgt id='1202'> +6.1256230e+01 </wgt>
<wgt id='1203'> +6.0672766e+01 </wgt>
<wgt id='1204'> +6.0657643e+01 </wgt>
<wgt id='1205'> +6.0817598e+01 </wgt>
<wgt id='1206'> +6.0920333e+01 </wgt>
<wgt id='1207'> +6.1273008e+01 </wgt>
<wgt id='1208'> +6.0737996e+01 </wgt>
<wgt id='1209'> +6.0709306e+01 </wgt>
<wgt id='1210'> +6.0839584e+01 </wgt>
<wgt id='1211'> +6.1333161e+01 </wgt>
<wgt id='1212'> +6.0595443e+01 </wgt>
<wgt id='1213'> +6.0998571e+01 </wgt>
<wgt id='1214'> +5.9916529e+01 </wgt>
<wgt id='1215'> +6.1787124e+01 </wgt>
<wgt id='1216'> +6.0469558e+01 </wgt>
<wgt id='1217'> +6.2468390e+01 </wgt>
<wgt id='1218'> +6.0470152e+01 </wgt>
<wgt id='1219'> +6.0724699e+01 </wgt>
<wgt id='1220'> +6.1578184e+01 </wgt>
<wgt id='1221'> +6.1292064e+01 </wgt>
<wgt id='1222'> +6.0676486e+01 </wgt>
<wgt id='1223'> +5.8462592e+01 </wgt>
<wgt id='1224'> +6.1836187e+01 </wgt>
<wgt id='1225'> +6.0299840e+01 </wgt>
<wgt id='1226'> +6.2148543e+01 </wgt>
<wgt id='1227'> +6.1733279e+01 </wgt>
<wgt id='1228'> +6.1066915e+01 </wgt>
<wgt id='1229'> +6.0626782e+01 </wgt>
<wgt id='1230'> +6.0732346e+01 </wgt>
<wgt id='1231'> +6.2472871e+01 </wgt>
<wgt id='1232'> +6.1241807e+01 </wgt>
<wgt id='1233'> +6.0714717e+01 </wgt>
<wgt id='1234'> +6.1314766e+01 </wgt>
<wgt id='1235'> +6.0758133e+01 </wgt>
<wgt id='1236'> +6.0185614e+01 </wgt>
<wgt id='1237'> +6.1925315e+01 </wgt>
<wgt id='1238'> +6.1151647e+01 </wgt>
<wgt id='1239'> +6.2819032e+01 </wgt>
<wgt id='1240'> +6.2816327e+01 </wgt>
<wgt id='1241'> +6.3063237e+01 </wgt>
<wgt id='1242'> +6.1202661e+01 </wgt>
<wgt id='1243'> +6.1716789e+01 </wgt>
<wgt id='1244'> +6.0928839e+01 </wgt>
<wgt id='1245'> +6.1649832e+01 </wgt>
<wgt id='1246'> +6.2430927e+01 </wgt>
<wgt id='1247'> +6.0569738e+01 </wgt>
<wgt id='1248'> +6.1973382e+01 </wgt>
<wgt id='1249'> +6.2110722e+01 </wgt>
<wgt id='1250'> +6.0659498e+01 </wgt>
<wgt id='1251'> +6.0436721e+01 </wgt>
<wgt id='1252'> +6.1262578e+01 </wgt>
<wgt id='1253'> +6.1217270e+01 </wgt>
<wgt id='1254'> +6.1243425e+01 </wgt>
<wgt id='1255'> +6.1214854e+01 </wgt>
<wgt id='1256'> +6.1426531e+01 </wgt>
<wgt id='1257'> +6.1260462e+01 </wgt>
<wgt id='1258'> +6.1163566e+01 </wgt>
<wgt id='1259'> +6.1245302e+01 </wgt>
<wgt id='1260'> +6.1154770e+01 </wgt>
<wgt id='1261'> +6.1310276e+01 </wgt>
<wgt id='1262'> +6.1268100e+01 </wgt>
<wgt id='1263'> +6.0985114e+01 </wgt>
<wgt id='1264'> +6.1068373e+01 </wgt>
<wgt id='1265'> +6.0907869e+01 </wgt>
<wgt id='1266'> +6.1165809e+01 </wgt>
<wgt id='1267'> +6.1198747e+01 </wgt>
<wgt id='1268'> +6.1379448e+01 </wgt>
<wgt id='1269'> +6.1237789e+01 </wgt>
<wgt id='1270'> +6.1112430e+01 </wgt>
<wgt id='1271'> +6.1302619e+01 </wgt>
<wgt id='1272'> +6.1204691e+01 </wgt>
<wgt id='1273'> +6.1294738e+01 </wgt>
<wgt id='1274'> +6.1211453e+01 </wgt>
<wgt id='1275'> +6.1339133e+01 </wgt>
<wgt id='1276'> +6.1091447e+01 </wgt>
<wgt id='1277'> +6.1327116e+01 </wgt>
<wgt id='1278'> +6.1512465e+01 </wgt>
<wgt id='1279'> +6.1157391e+01 </wgt>
<wgt id='1280'> +6.1095171e+01 </wgt>
<wgt id='1281'> +6.1640552e+01 </wgt>
<wgt id='1282'> +6.1207498e+01 </wgt>
<wgt id='1283'> +6.1360185e+01 </wgt>
<wgt id='1284'> +6.1195757e+01 </wgt>
<wgt id='1285'> +6.1281805e+01 </wgt>
<wgt id='1286'> +6.1510583e+01 </wgt>
<wgt id='1287'> +6.1205219e+01 </wgt>
<wgt id='1288'> +6.1269662e+01 </wgt>
<wgt id='1289'> +6.1453132e+01 </wgt>
<wgt id='1290'> +6.1207439e+01 </wgt>
<wgt id='1291'> +6.1093128e+01 </wgt>
<wgt id='1292'> +6.1255959e+01 </wgt>
<wgt id='1293'> +6.1237445e+01 </wgt>
<wgt id='1294'> +6.1176075e+01 </wgt>
<wgt id='1295'> +6.1236107e+01 </wgt>
<wgt id='1296'> +6.1366174e+01 </wgt>
<wgt id='1297'> +6.1196391e+01 </wgt>
<wgt id='1298'> +6.1382788e+01 </wgt>
<wgt id='1299'> +6.1395470e+01 </wgt>
<wgt id='1300'> +6.1184412e+01 </wgt>
<wgt id='1301'> +6.1246017e+01 </wgt>
<wgt id='1302'> +6.1320542e+01 </wgt>
<wgt id='1303'> +6.1377662e+01 </wgt>
<wgt id='1304'> +6.1283888e+01 </wgt>
<wgt id='1305'> +6.1294367e+01 </wgt>
<wgt id='1306'> +6.1302730e+01 </wgt>
<wgt id='1307'> +6.1241402e+01 </wgt>
<wgt id='1308'> +6.1263173e+01 </wgt>
<wgt id='1309'> +6.1307158e+01 </wgt>
<wgt id='1310'> +6.1260235e+01 </wgt>
<wgt id='1311'> +6.1244347e+01 </wgt>
<wgt id='1312'> +6.1289221e+01 </wgt>
<wgt id='1313'> +6.1223750e+01 </wgt>
<wgt id='1314'> +6.1291415e+01 </wgt>
<wgt id='1315'> +6.1271076e+01 </wgt>
<wgt id='1316'> +6.1227831e+01 </wgt>
<wgt id='1317'> +6.1312392e+01 </wgt>
<wgt id='1318'> +6.1252856e+01 </wgt>
<wgt id='1319'> +6.1267987e+01 </wgt>
<wgt id='1320'> +6.1298186e+01 </wgt>
<wgt id='1321'> +6.1276807e+01 </wgt>
<wgt id='1322'> +6.1234322e+01 </wgt>
<wgt id='1323'> +6.1223123e+01 </wgt>
<wgt id='1324'> +6.1275854e+01 </wgt>
<wgt id='1325'> +6.1251945e+01 </wgt>
<wgt id='1326'> +6.1244278e+01 </wgt>
<wgt id='1327'> +6.1241032e+01 </wgt>
<wgt id='1328'> +6.1256374e+01 </wgt>
<wgt id='1329'> +6.1255692e+01 </wgt>
<wgt id='1330'> +6.1256108e+01 </wgt>
<wgt id='1331'> +6.1257647e+01 </wgt>
<wgt id='1332'> +6.1290850e+01 </wgt>
<wgt id='1333'> +6.1262616e+01 </wgt>
<wgt id='1334'> +6.1272487e+01 </wgt>
<wgt id='1335'> +6.1257021e+01 </wgt>
<wgt id='1336'> +6.1278363e+01 </wgt>
<wgt id='1337'> +6.1255215e+01 </wgt>
<wgt id='1338'> +6.1245738e+01 </wgt>
<wgt id='1339'> +6.1241847e+01 </wgt>
<wgt id='1340'> +6.1267611e+01 </wgt>
<wgt id='1341'> +6.1260192e+01 </wgt>
<wgt id='1342'> +6.1292866e+01 </wgt>
<wgt id='1343'> +6.1261553e+01 </wgt>
<wgt id='1344'> +6.1272127e+01 </wgt>
<wgt id='1345'> +6.1248313e+01 </wgt>
<wgt id='1346'> +6.1293363e+01 </wgt>
<wgt id='1347'> +6.1281119e+01 </wgt>
<wgt id='1348'> +6.1259768e+01 </wgt>
<wgt id='1349'> +6.1277851e+01 </wgt>
<wgt id='1350'> +6.1261990e+01 </wgt>
<wgt id='1351'> +6.1270610e+01 </wgt>
<wgt id='1352'> +6.1265071e+01 </wgt>
<wgt id='1353'> +5.8637567e+01 </wgt>
<wgt id='1354'> +6.4044177e+01 </wgt>
<wgt id='1355'> +4.9079652e+01 </wgt>
<wgt id='1356'> +5.1445037e+01 </wgt>
<wgt id='1357'> +5.3874098e+01 </wgt>
<wgt id='1358'> +5.6072371e+01 </wgt>
<wgt id='1359'> +5.9947024e+01 </wgt>
<wgt id='1360'> +6.2590853e+01 </wgt>
<wgt id='1361'> +6.6527024e+01 </wgt>
<wgt id='1362'> +6.9316184e+01 </wgt>
<wgt id='1363'> +6.2269022e+01 </wgt>
<wgt id='1364'> +6.2250965e+01 </wgt>
<wgt id='1365'> +6.2289791e+01 </wgt>
<wgt id='1366'> +6.2174048e+01 </wgt>
<wgt id='1367'> +6.2393606e+01 </wgt>
<wgt id='1368'> +6.2194927e+01 </wgt>
<wgt id='1369'> +6.2194405e+01 </wgt>
<wgt id='1370'> +6.2296660e+01 </wgt>
<wgt id='1371'> +6.2326192e+01 </wgt>
<wgt id='1372'> +6.2406002e+01 </wgt>
<wgt id='1373'> +6.2306912e+01 </wgt>
<wgt id='1374'> +6.2107789e+01 </wgt>
<wgt id='1375'> +6.2109899e+01 </wgt>
<wgt id='1376'> +6.2552573e+01 </wgt>
<wgt id='1377'> +6.2149089e+01 </wgt>
<wgt id='1378'> +6.2118191e+01 </wgt>
<wgt id='1379'> +6.2239548e+01 </wgt>
<wgt id='1380'> +6.2132243e+01 </wgt>
<wgt id='1381'> +6.2302121e+01 </wgt>
<wgt id='1382'> +6.2465652e+01 </wgt>
<wgt id='1383'> +6.2329709e+01 </wgt>
<wgt id='1384'> +6.2348066e+01 </wgt>
<wgt id='1385'> +6.2276980e+01 </wgt>
<wgt id='1386'> +6.2271647e+01 </wgt>
<wgt id='1387'> +6.2167644e+01 </wgt>
<wgt id='1388'> +6.2361644e+01 </wgt>
<wgt id='1389'> +6.2276958e+01 </wgt>
<wgt id='1390'> +6.2277571e+01 </wgt>
<wgt id='1391'> +6.2094097e+01 </wgt>
<wgt id='1392'> +6.1984393e+01 </wgt>
<wgt id='1393'> +6.2604162e+01 </wgt>
<wgt id='1394'> +6.2493193e+01 </wgt>
<wgt id='1395'> +6.2345078e+01 </wgt>
<wgt id='1396'> +6.2494532e+01 </wgt>
<wgt id='1397'> +6.2282121e+01 </wgt>
<wgt id='1398'> +6.2605993e+01 </wgt>
<wgt id='1399'> +6.2363173e+01 </wgt>
<wgt id='1400'> +6.2230750e+01 </wgt>
<wgt id='1401'> +6.2299089e+01 </wgt>
<wgt id='1402'> +6.2269442e+01 </wgt>
<wgt id='1403'> +6.2200982e+01 </wgt>
<wgt id='1404'> +6.2368900e+01 </wgt>
<wgt id='1405'> +6.2162305e+01 </wgt>
<wgt id='1406'> +6.2132038e+01 </wgt>
<wgt id='1407'> +6.2307710e+01 </wgt>
<wgt id='1408'> +6.2341009e+01 </wgt>
<wgt id='1409'> +6.2393017e+01 </wgt>
<wgt id='1410'> +6.2286043e+01 </wgt>
<wgt id='1411'> +6.2296748e+01 </wgt>
<wgt id='1412'> +6.2229794e+01 </wgt>
<wgt id='1413'> +6.2202700e+01 </wgt>
<wgt id='1414'> +6.2387998e+01 </wgt>
<wgt id='1415'> +6.2216182e+01 </wgt>
<wgt id='1416'> +6.2239999e+01 </wgt>
<wgt id='1417'> +6.2272779e+01 </wgt>
<wgt id='1418'> +6.2162415e+01 </wgt>
<wgt id='1419'> +6.2256309e+01 </wgt>
<wgt id='1420'> +6.2271896e+01 </wgt>
<wgt id='1421'> +6.2221903e+01 </wgt>
<wgt id='1422'> +6.2283478e+01 </wgt>
<wgt id='1423'> +6.2283575e+01 </wgt>
<wgt id='1424'> +6.2274621e+01 </wgt>
<wgt id='1425'> +6.2277317e+01 </wgt>
<wgt id='1426'> +6.2295960e+01 </wgt>
<wgt id='1427'> +6.2224951e+01 </wgt>
<wgt id='1428'> +6.2255192e+01 </wgt>
<wgt id='1429'> +6.2304205e+01 </wgt>
<wgt id='1430'> +6.2212308e+01 </wgt>
<wgt id='1431'> +6.2302424e+01 </wgt>
<wgt id='1432'> +6.2251210e+01 </wgt>
<wgt id='1433'> +6.2260811e+01 </wgt>
<wgt id='1434'> +6.2238577e+01 </wgt>
<wgt id='1435'> +6.2257346e+01 </wgt>
<wgt id='1436'> +6.2238010e+01 </wgt>
<wgt id='1437'> +6.2325534e+01 </wgt>
<wgt id='1438'> +6.2272872e+01 </wgt>
<wgt id='1439'> +6.2287008e+01 </wgt>
<wgt id='1440'> +6.2271643e+01 </wgt>
<wgt id='1441'> +6.2287826e+01 </wgt>
<wgt id='1442'> +6.2251078e+01 </wgt>
<wgt id='1443'> +6.2257473e+01 </wgt>
<wgt id='1444'> +6.2269734e+01 </wgt>
<wgt id='1445'> +6.2236090e+01 </wgt>
<wgt id='1446'> +6.2260489e+01 </wgt>
<wgt id='1447'> +6.2252230e+01 </wgt>
<wgt id='1448'> +6.2268951e+01 </wgt>
<wgt id='1449'> +6.2258224e+01 </wgt>
<wgt id='1450'> +6.2267547e+01 </wgt>
<wgt id='1451'> +6.2253291e+01 </wgt>
<wgt id='1452'> +6.2270169e+01 </wgt>
<wgt id='1453'> +6.2267864e+01 </wgt>
<wgt id='1454'> +6.2282444e+01 </wgt>
<wgt id='1455'> +6.2275983e+01 </wgt>
<wgt id='1456'> +6.2262457e+01 </wgt>
<wgt id='1457'> +6.2281393e+01 </wgt>
<wgt id='1458'> +6.2273029e+01 </wgt>
<wgt id='1459'> +6.2247364e+01 </wgt>
<wgt id='1460'> +6.2256302e+01 </wgt>
<wgt id='1461'> +6.2264019e+01 </wgt>
<wgt id='1462'> +6.2257414e+01 </wgt>
<wgt id='1463'> +6.2276409e+01 </wgt>
<wgt id='1464'> +5.9593153e+01 </wgt>
<wgt id='1465'> +6.4796589e+01 </wgt>
<wgt id='1466'> +6.1379597e+01 </wgt>
<wgt id='1467'> +6.1690690e+01 </wgt>
<wgt id='1468'> +6.1695717e+01 </wgt>
<wgt id='1469'> +6.1643767e+01 </wgt>
<wgt id='1470'> +6.1087022e+01 </wgt>
<wgt id='1471'> +6.1170247e+01 </wgt>
<wgt id='1472'> +5.9236088e+01 </wgt>
<wgt id='1473'> +6.0434901e+01 </wgt>
<wgt id='1474'> +6.2223382e+01 </wgt>
<wgt id='1475'> +6.0640897e+01 </wgt>
<wgt id='1476'> +6.1525860e+01 </wgt>
<wgt id='1477'> +6.1807003e+01 </wgt>
<wgt id='1478'> +6.1205441e+01 </wgt>
<wgt id='1479'> +6.2970747e+01 </wgt>
<wgt id='1480'> +6.2062899e+01 </wgt>
<wgt id='1481'> +6.1088362e+01 </wgt>
<wgt id='1482'> +6.2248405e+01 </wgt>
<wgt id='1483'> +6.0168368e+01 </wgt>
<wgt id='1484'> +6.2681436e+01 </wgt>
<wgt id='1485'> +6.2270493e+01 </wgt>
<wgt id='1486'> +6.0549851e+01 </wgt>
<wgt id='1487'> +6.1101987e+01 </wgt>
<wgt id='1488'> +6.1554722e+01 </wgt>
<wgt id='1489'> +6.1033144e+01 </wgt>
<wgt id='1490'> +6.1765956e+01 </wgt>
<wgt id='1491'> +6.1747408e+01 </wgt>
<wgt id='1492'> +6.1075195e+01 </wgt>
<wgt id='1493'> +6.1425644e+01 </wgt>
<wgt id='1494'> +6.1296077e+01 </wgt>
<wgt id='1495'> +6.1572617e+01 </wgt>
<wgt id='1496'> +6.1270120e+01 </wgt>
<wgt id='1497'> +6.1286080e+01 </wgt>
<wgt id='1498'> +6.1532490e+01 </wgt>
<wgt id='1499'> +6.1413966e+01 </wgt>
<wgt id='1500'> +6.1367776e+01 </wgt>
<wgt id='1501'> +6.2384785e+01 </wgt>
<wgt id='1502'> +6.0503967e+01 </wgt>
<wgt id='1503'> +5.9418867e+01 </wgt>
<wgt id='1504'> +6.3633246e+01 </wgt>
<wgt id='1505'> +6.2748404e+01 </wgt>
<wgt id='1506'> +6.0654718e+01 </wgt>
<wgt id='1507'> +6.1838885e+01 </wgt>
<wgt id='1508'> +6.1201663e+01 </wgt>
<wgt id='1509'> +6.1508667e+01 </wgt>
<wgt id='1510'> +6.2052013e+01 </wgt>
<wgt id='1511'> +6.1092047e+01 </wgt>
<wgt id='1512'> +5.9841521e+01 </wgt>
<wgt id='1513'> +6.1185724e+01 </wgt>
<wgt id='1514'> +6.0707613e+01 </wgt>
<wgt id='1515'> +6.1424674e+01 </wgt>
<wgt id='1516'> +6.1149281e+01 </wgt>
<wgt id='1517'> +6.1227054e+01 </wgt>
<wgt id='1518'> +6.1409781e+01 </wgt>
<wgt id='1519'> +5.9080142e+01 </wgt>
<wgt id='1520'> +5.9421045e+01 </wgt>
<wgt id='1521'> +6.0891023e+01 </wgt>
<wgt id='1522'> +6.2534110e+01 </wgt>
<wgt id='1523'> +5.8457590e+01 </wgt>
<wgt id='1524'> +6.4524732e+01 </wgt>
<wgt id='1525'> +5.9968460e+01 </wgt>
<wgt id='1526'> +5.9861903e+01 </wgt>
<wgt id='1527'> +5.9884840e+01 </wgt>
<wgt id='1528'> +5.8182939e+01 </wgt>
<wgt id='1529'> +5.9639239e+01 </wgt>
<wgt id='1530'> +5.9622773e+01 </wgt>
<wgt id='1531'> +6.0243554e+01 </wgt>
<wgt id='1532'> +5.9775379e+01 </wgt>
<wgt id='1533'> +5.9344564e+01 </wgt>
<wgt id='1534'> +6.0648195e+01 </wgt>
<wgt id='1535'> +5.9313371e+01 </wgt>
<wgt id='1536'> +6.0960197e+01 </wgt>
<wgt id='1537'> +5.9139018e+01 </wgt>
<wgt id='1538'> +6.0757746e+01 </wgt>
<wgt id='1539'> +5.9679820e+01 </wgt>
<wgt id='1540'> +6.1433788e+01 </wgt>
<wgt id='1541'> +5.8997024e+01 </wgt>
<wgt id='1542'> +5.8710240e+01 </wgt>
<wgt id='1543'> +6.1458344e+01 </wgt>
<wgt id='1544'> +6.0266380e+01 </wgt>
<wgt id='1545'> +5.9684440e+01 </wgt>
<wgt id='1546'> +6.0094681e+01 </wgt>
<wgt id='1547'> +5.9732753e+01 </wgt>
<wgt id='1548'> +5.9943658e+01 </wgt>
<wgt id='1549'> +6.0027678e+01 </wgt>
<wgt id='1550'> +6.1735280e+01 </wgt>
<wgt id='1551'> +5.8317703e+01 </wgt>
<wgt id='1552'> +6.0283886e+01 </wgt>
<wgt id='1553'> +5.9551874e+01 </wgt>
<wgt id='1554'> +6.0196032e+01 </wgt>
<wgt id='1555'> +5.9896115e+01 </wgt>
<wgt id='1556'> +6.0235383e+01 </wgt>
<wgt id='1557'> +5.9625511e+01 </wgt>
<wgt id='1558'> +5.9507209e+01 </wgt>
<wgt id='1559'> +6.0992690e+01 </wgt>
<wgt id='1560'> +5.8616865e+01 </wgt>
<wgt id='1561'> +6.1320596e+01 </wgt>
<wgt id='1562'> +5.9580797e+01 </wgt>
<wgt id='1563'> +6.0621020e+01 </wgt>
<wgt id='1564'> +5.9915021e+01 </wgt>
<wgt id='1565'> +6.0220695e+01 </wgt>
<wgt id='1566'> +5.9532519e+01 </wgt>
<wgt id='1567'> +6.0434375e+01 </wgt>
<wgt id='1568'> +5.9307934e+01 </wgt>
<wgt id='1569'> +6.1251606e+01 </wgt>
<wgt id='1570'> +6.0240583e+01 </wgt>
<wgt id='1571'> +6.0440386e+01 </wgt>
<wgt id='1572'> +6.0295466e+01 </wgt>
<wgt id='1573'> +5.8379538e+01 </wgt>
<wgt id='1574'> +5.8549771e+01 </wgt>
<wgt id='1575'> +6.0480394e+01 </wgt>
<wgt id='1576'> +6.0307568e+01 </wgt>
<wgt id='1577'> +6.0206731e+01 </wgt>
<wgt id='1578'> +5.7864956e+01 </wgt>
<wgt id='1579'> +6.0740281e+01 </wgt>
<wgt id='1580'> +5.9580524e+01 </wgt>
<wgt id='1581'> +6.0856838e+01 </wgt>
<wgt id='1582'> +5.7349324e+01 </wgt>
<wgt id='1583'> +6.2802002e+01 </wgt>
<wgt id='1584'> +5.6219380e+01 </wgt>
<wgt id='1585'> +6.1123650e+01 </wgt>
<wgt id='1586'> +6.1184568e+01 </wgt>
<wgt id='1587'> +6.1065593e+01 </wgt>
<wgt id='1588'> +6.1209074e+01 </wgt>
<wgt id='1589'> +6.1069044e+01 </wgt>
<wgt id='1590'> +6.1523590e+01 </wgt>
<wgt id='1591'> +6.0755949e+01 </wgt>
<wgt id='1592'> +6.0947807e+01 </wgt>
<wgt id='1593'> +6.1325942e+01 </wgt>
<wgt id='1594'> +6.1150675e+01 </wgt>
<wgt id='1595'> +6.1095620e+01 </wgt>
<wgt id='1596'> +6.1161000e+01 </wgt>
<wgt id='1597'> +6.1050083e+01 </wgt>
<wgt id='1598'> +6.1114769e+01 </wgt>
<wgt id='1599'> +6.1151650e+01 </wgt>
<wgt id='1600'> +6.1079586e+01 </wgt>
<wgt id='1601'> +6.1151038e+01 </wgt>
<wgt id='1602'> +6.0973947e+01 </wgt>
<wgt id='1603'> +6.1302178e+01 </wgt>
<wgt id='1604'> +6.1141403e+01 </wgt>
<wgt id='1605'> +6.1112418e+01 </wgt>
<wgt id='1606'> +6.1036214e+01 </wgt>
<wgt id='1607'> +6.1243023e+01 </wgt>
<wgt id='1608'> +6.0850949e+01 </wgt>
<wgt id='1609'> +6.1311071e+01 </wgt>
<wgt id='1610'> +6.1540878e+01 </wgt>
<wgt id='1611'> +6.0729672e+01 </wgt>
<wgt id='1612'> +6.1109364e+01 </wgt>
<wgt id='1613'> +6.1103095e+01 </wgt>
<wgt id='1614'> +6.0753527e+01 </wgt>
<wgt id='1615'> +6.1578400e+01 </wgt>
<wgt id='1616'> +6.0343841e+01 </wgt>
<wgt id='1617'> +6.2016682e+01 </wgt>
<wgt id='1618'> +6.1453315e+01 </wgt>
<wgt id='1619'> +6.0816510e+01 </wgt>
<wgt id='1620'> +6.1287557e+01 </wgt>
<wgt id='1621'> +6.0637891e+01 </wgt>
<wgt id='1622'> +6.1154230e+01 </wgt>
<wgt id='1623'> +6.1105026e+01 </wgt>
<wgt id='1624'> +6.0948866e+01 </wgt>
<wgt id='1625'> +6.1331141e+01 </wgt>
<wgt id='1626'> +6.0558926e+01 </wgt>
<wgt id='1627'> +6.1746310e+01 </wgt>
<wgt id='1628'> +6.1525311e+01 </wgt>
<wgt id='1629'> +6.0902259e+01 </wgt>
<wgt id='1630'> +6.1040008e+01 </wgt>
<wgt id='1631'> +6.1335949e+01 </wgt>
<wgt id='1632'> +6.2011388e+01 </wgt>
<wgt id='1633'> +6.0131957e+01 </wgt>
<wgt id='1634'> +6.1541675e+01 </wgt>
<wgt id='1635'> +6.0952551e+01 </wgt>
<wgt id='1636'> +6.0761705e+01 </wgt>
<wgt id='1637'> +6.0756199e+01 </wgt>
<wgt id='1638'> +6.0766466e+01 </wgt>
<wgt id='1639'> +6.0968795e+01 </wgt>
<wgt id='1640'> +6.0549490e+01 </wgt>
<wgt id='1641'> +6.0973022e+01 </wgt>
<wgt id='1642'> +6.0671213e+01 </wgt>
<wgt id='1643'> +6.0800638e+01 </wgt>
<wgt id='1644'> +6.0717920e+01 </wgt>
<wgt id='1645'> +6.0790894e+01 </wgt>
<wgt id='1646'> +6.0727916e+01 </wgt>
<wgt id='1647'> +6.0697373e+01 </wgt>
<wgt id='1648'> +6.0784565e+01 </wgt>
<wgt id='1649'> +6.0743103e+01 </wgt>
<wgt id='1650'> +6.0777957e+01 </wgt>
<wgt id='1651'> +6.0779182e+01 </wgt>
<wgt id='1652'> +6.0745361e+01 </wgt>
<wgt id='1653'> +6.0882177e+01 </wgt>
<wgt id='1654'> +6.0691095e+01 </wgt>
<wgt id='1655'> +6.0788310e+01 </wgt>
<wgt id='1656'> +6.0714630e+01 </wgt>
<wgt id='1657'> +6.0658309e+01 </wgt>
<wgt id='1658'> +6.0831279e+01 </wgt>
<wgt id='1659'> +6.1112357e+01 </wgt>
<wgt id='1660'> +6.0428941e+01 </wgt>
<wgt id='1661'> +6.0863542e+01 </wgt>
<wgt id='1662'> +6.0497640e+01 </wgt>
<wgt id='1663'> +6.0699076e+01 </wgt>
<wgt id='1664'> +6.0718121e+01 </wgt>
<wgt id='1665'> +6.1063395e+01 </wgt>
<wgt id='1666'> +6.0019849e+01 </wgt>
<wgt id='1667'> +6.0433216e+01 </wgt>
<wgt id='1668'> +6.1415813e+01 </wgt>
<wgt id='1669'> +6.0888924e+01 </wgt>
<wgt id='1670'> +6.0468666e+01 </wgt>
<wgt id='1671'> +6.0142628e+01 </wgt>
<wgt id='1672'> +6.0998759e+01 </wgt>
<wgt id='1673'> +6.0737527e+01 </wgt>
<wgt id='1674'> +6.0735817e+01 </wgt>
<wgt id='1675'> +6.0499861e+01 </wgt>
<wgt id='1676'> +6.0956140e+01 </wgt>
<wgt id='1677'> +6.0940566e+01 </wgt>
<wgt id='1678'> +6.0459544e+01 </wgt>
<wgt id='1679'> +6.0811027e+01 </wgt>
<wgt id='1680'> +6.0504092e+01 </wgt>
<wgt id='1681'> +5.9913454e+01 </wgt>
<wgt id='1682'> +6.1405455e+01 </wgt>
<wgt id='1683'> +6.1188043e+01 </wgt>
<wgt id='1684'> +6.0576391e+01 </wgt>
<wgt id='1685'> +6.0346107e+01 </wgt>
<wgt id='1686'> +6.1060568e+01 </wgt>
<wgt id='1687'> +7.9166819e+01 </wgt>
<wgt id='1688'> +6.0388895e+01 </wgt>
<wgt id='1689'> +6.0380982e+01 </wgt>
<wgt id='1690'> +6.0409327e+01 </wgt>
<wgt id='1691'> +6.0381324e+01 </wgt>
<wgt id='1692'> +6.0387403e+01 </wgt>
<wgt id='1693'> +6.0290832e+01 </wgt>
<wgt id='1694'> +6.0494264e+01 </wgt>
<wgt id='1695'> +6.0573061e+01 </wgt>
<wgt id='1696'> +6.0522271e+01 </wgt>
<wgt id='1697'> +6.0630902e+01 </wgt>
<wgt id='1698'> +6.0298145e+01 </wgt>
<wgt id='1699'> +6.0411620e+01 </wgt>
<wgt id='1700'> +6.0124237e+01 </wgt>
<wgt id='1701'> +6.0214540e+01 </wgt>
<wgt id='1702'> +6.0595927e+01 </wgt>
<wgt id='1703'> +6.0348011e+01 </wgt>
<wgt id='1704'> +6.0467707e+01 </wgt>
<wgt id='1705'> +6.0409166e+01 </wgt>
<wgt id='1706'> +6.0603338e+01 </wgt>
<wgt id='1707'> +6.0382239e+01 </wgt>
<wgt id='1708'> +6.0462748e+01 </wgt>
<wgt id='1709'> +6.0303677e+01 </wgt>
<wgt id='1710'> +6.0518405e+01 </wgt>
<wgt id='1711'> +6.0267816e+01 </wgt>
<wgt id='1712'> +6.0064776e+01 </wgt>
<wgt id='1713'> +6.0210020e+01 </wgt>
<wgt id='1714'> +6.0444669e+01 </wgt>
<wgt id='1715'> +6.0499228e+01 </wgt>
<wgt id='1716'> +6.0417716e+01 </wgt>
<wgt id='1717'> +6.0604401e+01 </wgt>
<wgt id='1718'> +6.1966034e+01 </wgt>
<wgt id='1719'> +6.1414391e+01 </wgt>
<wgt id='1720'> +6.2254031e+01 </wgt>
<wgt id='1721'> +6.2019011e+01 </wgt>
<wgt id='1722'> +6.1633023e+01 </wgt>
<wgt id='1723'> +6.1980367e+01 </wgt>
<wgt id='1724'> +6.2472133e+01 </wgt>
<wgt id='1725'> +6.1047505e+01 </wgt>
<wgt id='1726'> +6.0371646e+01 </wgt>
<wgt id='1727'> +6.2644428e+01 </wgt>
<wgt id='1728'> +6.2463028e+01 </wgt>
<wgt id='1729'> +6.1805154e+01 </wgt>
<wgt id='1730'> +6.2217835e+01 </wgt>
<wgt id='1731'> +6.1980058e+01 </wgt>
<wgt id='1732'> +6.1040582e+01 </wgt>
<wgt id='1733'> +6.2526451e+01 </wgt>
<wgt id='1734'> +6.1676022e+01 </wgt>
<wgt id='1735'> +6.1733489e+01 </wgt>
<wgt id='1736'> +6.1517149e+01 </wgt>
<wgt id='1737'> +6.1412690e+01 </wgt>
<wgt id='1738'> +6.1629906e+01 </wgt>
<wgt id='1739'> +6.1839540e+01 </wgt>
<wgt id='1740'> +6.2295568e+01 </wgt>
<wgt id='1741'> +6.1659258e+01 </wgt>
<wgt id='1742'> +6.2089305e+01 </wgt>
<wgt id='1743'> +6.2117261e+01 </wgt>
<wgt id='1744'> +6.1893727e+01 </wgt>
<wgt id='1745'> +6.1887194e+01 </wgt>
<wgt id='1746'> +6.1967960e+01 </wgt>
<wgt id='1747'> +6.1895548e+01 </wgt>
<wgt id='1748'> +6.2064388e+01 </wgt>
<wgt id='1749'> +6.1945851e+01 </wgt>
<wgt id='1750'> +6.1956571e+01 </wgt>
<wgt id='1751'> +6.1873693e+01 </wgt>
<wgt id='1752'> +6.1971968e+01 </wgt>
<wgt id='1753'> +6.2126264e+01 </wgt>
<wgt id='1754'> +6.1910665e+01 </wgt>
<wgt id='1755'> +6.1957789e+01 </wgt>
<wgt id='1756'> +6.1957627e+01 </wgt>
<wgt id='1757'> +6.2000106e+01 </wgt>
<wgt id='1758'> +6.2025307e+01 </wgt>
<wgt id='1759'> +6.2023324e+01 </wgt>
<wgt id='1760'> +6.1988887e+01 </wgt>
<wgt id='1761'> +6.1892432e+01 </wgt>
<wgt id='1762'> +6.2064783e+01 </wgt>
<wgt id='1763'> +6.1993534e+01 </wgt>
<wgt id='1764'> +6.2040050e+01 </wgt>
<wgt id='1765'> +6.1925998e+01 </wgt>
<wgt id='1766'> +6.1929072e+01 </wgt>
<wgt id='1767'> +6.1995737e+01 </wgt>
<wgt id='1768'> +6.1887802e+01 </wgt>
<wgt id='1769'> +6.1942285e+01 </wgt>
<wgt id='1770'> +6.1880828e+01 </wgt>
<wgt id='1771'> +6.1851215e+01 </wgt>
<wgt id='1772'> +6.1935161e+01 </wgt>
<wgt id='1773'> +6.1948323e+01 </wgt>
<wgt id='1774'> +6.1951436e+01 </wgt>
<wgt id='1775'> +6.1991869e+01 </wgt>
<wgt id='1776'> +6.2036498e+01 </wgt>
<wgt id='1777'> +6.1954234e+01 </wgt>
<wgt id='1778'> +6.1876787e+01 </wgt>
<wgt id='1779'> +6.1992130e+01 </wgt>
<wgt id='1780'> +6.1921757e+01 </wgt>
<wgt id='1781'> +6.1960798e+01 </wgt>
<wgt id='1782'> +6.1919539e+01 </wgt>
<wgt id='1783'> +6.1993552e+01 </wgt>
<wgt id='1784'> +6.1990845e+01 </wgt>
<wgt id='1785'> +6.1951599e+01 </wgt>
<wgt id='1786'> +6.2015604e+01 </wgt>
<wgt id='1787'> +6.2000478e+01 </wgt>
<wgt id='1788'> +6.1959176e+01 </wgt>
<wgt id='1789'> +6.1897091e+01 </wgt>
<wgt id='1790'> +6.1905609e+01 </wgt>
<wgt id='1791'> +6.1939241e+01 </wgt>
<wgt id='1792'> +6.1922459e+01 </wgt>
<wgt id='1793'> +6.1964672e+01 </wgt>
<wgt id='1794'> +6.1957910e+01 </wgt>
<wgt id='1795'> +6.1909579e+01 </wgt>
<wgt id='1796'> +6.1943305e+01 </wgt>
<wgt id='1797'> +6.2030024e+01 </wgt>
<wgt id='1798'> +6.1955550e+01 </wgt>
<wgt id='1799'> +6.1998508e+01 </wgt>
<wgt id='1800'> +6.1921989e+01 </wgt>
<wgt id='1801'> +6.1991070e+01 </wgt>
<wgt id='1802'> +6.2014708e+01 </wgt>
<wgt id='1803'> +6.2003461e+01 </wgt>
<wgt id='1804'> +6.2050888e+01 </wgt>
<wgt id='1805'> +6.1979667e+01 </wgt>
<wgt id='1806'> +6.1962197e+01 </wgt>
<wgt id='1807'> +6.1972191e+01 </wgt>
<wgt id='1808'> +6.1969539e+01 </wgt>
<wgt id='1809'> +6.1929798e+01 </wgt>
<wgt id='1810'> +6.1965814e+01 </wgt>
<wgt id='1811'> +6.1952610e+01 </wgt>
<wgt id='1812'> +6.1954200e+01 </wgt>
<wgt id='1813'> +6.1948349e+01 </wgt>
<wgt id='1814'> +6.1969983e+01 </wgt>
<wgt id='1815'> +6.1973062e+01 </wgt>
<wgt id='1816'> +6.1980405e+01 </wgt>
<wgt id='1817'> +6.1971589e+01 </wgt>
<wgt id='1818'> +6.1966302e+01 </wgt>
<wgt id='1819'> +6.0313587e+01 </wgt>
<wgt id='1820'> +6.3698476e+01 </wgt>
<wgt id='1821'> +6.1514268e+01 </wgt>
<wgt id='1822'> +6.1474131e+01 </wgt>
<wgt id='1823'> +6.1606871e+01 </wgt>
<wgt id='1824'> +6.1361308e+01 </wgt>
<wgt id='1825'> +6.1690904e+01 </wgt>
<wgt id='1826'> +6.1833097e+01 </wgt>
<wgt id='1827'> +6.1588797e+01 </wgt>
<wgt id='1828'> +6.1138240e+01 </wgt>
<wgt id='1829'> +6.1348093e+01 </wgt>
<wgt id='1830'> +6.1577803e+01 </wgt>
<wgt id='1831'> +6.1172557e+01 </wgt>
<wgt id='1832'> +6.1829904e+01 </wgt>
<wgt id='1833'> +6.2264595e+01 </wgt>
<wgt id='1834'> +6.1623224e+01 </wgt>
<wgt id='1835'> +6.1931527e+01 </wgt>
<wgt id='1836'> +6.1261561e+01 </wgt>
<wgt id='1837'> +6.2124425e+01 </wgt>
<wgt id='1838'> +6.0919140e+01 </wgt>
<wgt id='1839'> +6.1607538e+01 </wgt>
<wgt id='1840'> +6.1786363e+01 </wgt>
<wgt id='1841'> +6.2065478e+01 </wgt>
<wgt id='1842'> +6.1427048e+01 </wgt>
<wgt id='1843'> +6.1682621e+01 </wgt>
<wgt id='1844'> +6.1005288e+01 </wgt>
<wgt id='1845'> +6.1310826e+01 </wgt>
<wgt id='1846'> +6.1706183e+01 </wgt>
<wgt id='1847'> +6.1511992e+01 </wgt>
<wgt id='1848'> +6.1493935e+01 </wgt>
<wgt id='1849'> +6.1564854e+01 </wgt>
<wgt id='1850'> +6.1529840e+01 </wgt>
<wgt id='1851'> +6.1543584e+01 </wgt>
<wgt id='1852'> +6.1433044e+01 </wgt>
<wgt id='1853'> +6.1550234e+01 </wgt>
<wgt id='1854'> +6.1549067e+01 </wgt>
<wgt id='1855'> +6.1562123e+01 </wgt>
<wgt id='1856'> +6.1528175e+01 </wgt>
<wgt id='1857'> +6.1570069e+01 </wgt>
<wgt id='1858'> +6.1583601e+01 </wgt>
<wgt id='1859'> +6.1597089e+01 </wgt>
<wgt id='1860'> +6.1507766e+01 </wgt>
<wgt id='1861'> +6.1459337e+01 </wgt>
<wgt id='1862'> +6.1518584e+01 </wgt>
<wgt id='1863'> +6.1562280e+01 </wgt>
<wgt id='1864'> +6.1406232e+01 </wgt>
<wgt id='1865'> +6.1567332e+01 </wgt>
<wgt id='1866'> +6.1562592e+01 </wgt>
<wgt id='1867'> +6.1458043e+01 </wgt>
<wgt id='1868'> +6.1567090e+01 </wgt>
<wgt id='1869'> +6.1573700e+01 </wgt>
<wgt id='1870'> +6.1457221e+01 </wgt>
<wgt id='1871'> +6.1510772e+01 </wgt>
<wgt id='1872'> +6.1581765e+01 </wgt>
<wgt id='1873'> +6.1585109e+01 </wgt>
<wgt id='1874'> +6.1493518e+01 </wgt>
<wgt id='1875'> +6.1487304e+01 </wgt>
<wgt id='1876'> +6.1455376e+01 </wgt>
<wgt id='1877'> +6.1538492e+01 </wgt>
<wgt id='1878'> +6.1523461e+01 </wgt>
<wgt id='1879'> +6.1415512e+01 </wgt>
<wgt id='1880'> +6.1482288e+01 </wgt>
<wgt id='1881'> +6.1480341e+01 </wgt>
<wgt id='1882'> +6.1511856e+01 </wgt>
<wgt id='1883'> +6.1518775e+01 </wgt>
<wgt id='1884'> +6.1534075e+01 </wgt>
<wgt id='1885'> +6.1493506e+01 </wgt>
<wgt id='1886'> +6.1495686e+01 </wgt>
<wgt id='1887'> +6.1516645e+01 </wgt>
<wgt id='1888'> +6.1539574e+01 </wgt>
<wgt id='1889'> +6.1514837e+01 </wgt>
<wgt id='1890'> +6.1588443e+01 </wgt>
<wgt id='1891'> +6.1501048e+01 </wgt>
<wgt id='1892'> +6.1564304e+01 </wgt>
<wgt id='1893'> +6.1576130e+01 </wgt>
<wgt id='1894'> +6.1512484e+01 </wgt>
<wgt id='1895'> +6.1516712e+01 </wgt>
<wgt id='1896'> +6.1493441e+01 </wgt>
<wgt id='1897'> +6.1492593e+01 </wgt>
<wgt id='1898'> +6.1549393e+01 </wgt>
<wgt id='1899'> +6.1512716e+01 </wgt>
<wgt id='1900'> +6.1519133e+01 </wgt>
<wgt id='1901'> +6.1596961e+01 </wgt>
<wgt id='1902'> +6.1521466e+01 </wgt>
<wgt id='1903'> +6.1540213e+01 </wgt>
<wgt id='1904'> +6.1500198e+01 </wgt>
<wgt id='1905'> +6.1485081e+01 </wgt>
<wgt id='1906'> +6.1472109e+01 </wgt>
<wgt id='1907'> +6.1543415e+01 </wgt>
<wgt id='1908'> +6.1433221e+01 </wgt>
<wgt id='1909'> +6.1488468e+01 </wgt>
<wgt id='1910'> +6.1489373e+01 </wgt>
<wgt id='1911'> +6.1537195e+01 </wgt>
<wgt id='1912'> +6.1482579e+01 </wgt>
<wgt id='1913'> +6.1505086e+01 </wgt>
<wgt id='1914'> +6.1490799e+01 </wgt>
<wgt id='1915'> +6.1500508e+01 </wgt>
<wgt id='1916'> +6.1512506e+01 </wgt>
<wgt id='1917'> +6.1493224e+01 </wgt>
<wgt id='1918'> +6.1521531e+01 </wgt>
<wgt id='1919'> +6.1513964e+01 </wgt>
<wgt id='1920'> +6.1495839e+01 </wgt>
<wgt id='1921'> +6.1509959e+01 </wgt>
<wgt id='1922'> +5.9809487e+01 </wgt>
<wgt id='1923'> +6.3406114e+01 </wgt>
<wgt id='1924'> +6.1993076e+01 </wgt>
<wgt id='1925'> +6.2254876e+01 </wgt>
<wgt id='1926'> +6.1111978e+01 </wgt>
<wgt id='1927'> +6.1921715e+01 </wgt>
<wgt id='1928'> +6.0412336e+01 </wgt>
<wgt id='1929'> +6.1679872e+01 </wgt>
<wgt id='1930'> +6.1492180e+01 </wgt>
<wgt id='1931'> +6.1972577e+01 </wgt>
<wgt id='1932'> +6.2200703e+01 </wgt>
<wgt id='1933'> +6.1565552e+01 </wgt>
<wgt id='1934'> +6.2246482e+01 </wgt>
<wgt id='1935'> +6.1432112e+01 </wgt>
<wgt id='1936'> +6.1987584e+01 </wgt>
<wgt id='1937'> +6.2122324e+01 </wgt>
<wgt id='1938'> +6.1851610e+01 </wgt>
<wgt id='1939'> +6.1977977e+01 </wgt>
<wgt id='1940'> +6.1616727e+01 </wgt>
<wgt id='1941'> +6.2773371e+01 </wgt>
<wgt id='1942'> +6.2179600e+01 </wgt>
<wgt id='1943'> +6.1623116e+01 </wgt>
<wgt id='1944'> +6.1752611e+01 </wgt>
<wgt id='1945'> +6.1881051e+01 </wgt>
<wgt id='1946'> +6.1940405e+01 </wgt>
<wgt id='1947'> +6.2068655e+01 </wgt>
<wgt id='1948'> +6.1861494e+01 </wgt>
<wgt id='1949'> +6.1930561e+01 </wgt>
<wgt id='1950'> +6.2370739e+01 </wgt>
<wgt id='1951'> +6.2235167e+01 </wgt>
<wgt id='1952'> +6.3172274e+01 </wgt>
<wgt id='1953'> +6.2021853e+01 </wgt>
<wgt id='1954'> +6.1948842e+01 </wgt>
<wgt id='1955'> +6.0313587e+01 </wgt>
<wgt id='1956'> +6.3698476e+01 </wgt>
<wgt id='1957'> +6.1518498e+01 </wgt>
<wgt id='1958'> +5.9928453e+01 </wgt>
<wgt id='1959'> +6.1566437e+01 </wgt>
<wgt id='1960'> +6.1512301e+01 </wgt>
<wgt id='1961'> +6.1590142e+01 </wgt>
<wgt id='1962'> +6.1793720e+01 </wgt>
<wgt id='1963'> +6.1562348e+01 </wgt>
<wgt id='1964'> +6.1501132e+01 </wgt>
<wgt id='1965'> +6.1536884e+01 </wgt>
<wgt id='1966'> +6.1470712e+01 </wgt>
<wgt id='1967'> +6.1131889e+01 </wgt>
<wgt id='1968'> +6.1517280e+01 </wgt>
<wgt id='1969'> +6.1488484e+01 </wgt>
<wgt id='1970'> +6.1553057e+01 </wgt>
<wgt id='1971'> +6.1493927e+01 </wgt>
<wgt id='1972'> +6.1422280e+01 </wgt>
<wgt id='1973'> +6.1552272e+01 </wgt>
<wgt id='1974'> +6.1569751e+01 </wgt>
<wgt id='1975'> +6.1502551e+01 </wgt>
<wgt id='1976'> +6.1509257e+01 </wgt>
<wgt id='1977'> +6.1736375e+01 </wgt>
<wgt id='1978'> +6.1536675e+01 </wgt>
<wgt id='1979'> +6.1647807e+01 </wgt>
<wgt id='1980'> +6.1556882e+01 </wgt>
<wgt id='1981'> +6.1563551e+01 </wgt>
<wgt id='1982'> +6.1515476e+01 </wgt>
<wgt id='1983'> +6.1542860e+01 </wgt>
<wgt id='1984'> +6.1578969e+01 </wgt>
<wgt id='1985'> +6.1576920e+01 </wgt>
<wgt id='1986'> +6.1366575e+01 </wgt>
<wgt id='1987'> +6.1545398e+01 </wgt>
<wgt id='1988'> +5.9809487e+01 </wgt>
<wgt id='1989'> +6.3406114e+01 </wgt>
<wgt id='1990'> +5.6768265e+01 </wgt>
<wgt id='1991'> +5.6692620e+01 </wgt>
<wgt id='1992'> +5.6843755e+01 </wgt>
<wgt id='1993'> +5.6767165e+01 </wgt>
<wgt id='1994'> +5.6769300e+01 </wgt>
<wgt id='1995'> +5.6819127e+01 </wgt>
<wgt id='1996'> +5.6717704e+01 </wgt>
<wgt id='1997'> +5.7094207e+01 </wgt>
<wgt id='1998'> +5.6449344e+01 </wgt>
<wgt id='1999'> +5.6664730e+01 </wgt>
<wgt id='2000'> +5.6873576e+01 </wgt>
<wgt id='2001'> +5.6316921e+01 </wgt>
<wgt id='2002'> +5.7268595e+01 </wgt>
<wgt id='2003'> +5.6618899e+01 </wgt>
<wgt id='2004'> +5.6920754e+01 </wgt>
<wgt id='2005'> +5.6960917e+01 </wgt>
<wgt id='2006'> +5.6483982e+01 </wgt>
<wgt id='2007'> +5.7042293e+01 </wgt>
<wgt id='2008'> +5.6622627e+01 </wgt>
<wgt id='2009'> +5.6943837e+01 </wgt>
<wgt id='2010'> +5.6541468e+01 </wgt>
<wgt id='2011'> +5.6776801e+01 </wgt>
<wgt id='2012'> +5.6782027e+01 </wgt>
<wgt id='2013'> +5.6176737e+01 </wgt>
<wgt id='2014'> +5.7347207e+01 </wgt>
<wgt id='2015'> +5.6414518e+01 </wgt>
<wgt id='2016'> +5.7129034e+01 </wgt>
<wgt id='2017'> +5.7769163e+01 </wgt>
<wgt id='2018'> +5.5829949e+01 </wgt>
<wgt id='2019'> +5.6768265e+01 </wgt>
<wgt id='2020'> +5.6303206e+01 </wgt>
<wgt id='2021'> +5.5566979e+01 </wgt>
<wgt id='2022'> +5.6312762e+01 </wgt>
<wgt id='2023'> +5.5715143e+01 </wgt>
<wgt id='2024'> +5.5877360e+01 </wgt>
<wgt id='2025'> +5.6723690e+01 </wgt>
<wgt id='2026'> +5.6059616e+01 </wgt>
<wgt id='2027'> +5.6022876e+01 </wgt>
<wgt id='2028'> +5.6518477e+01 </wgt>
<wgt id='2029'> +5.5541109e+01 </wgt>
<wgt id='2030'> +5.5660073e+01 </wgt>
<wgt id='2031'> +5.5801748e+01 </wgt>
<wgt id='2032'> +5.6486357e+01 </wgt>
<wgt id='2033'> +6.1241204e+01 </wgt>
<wgt id='2034'> +6.0228028e+01 </wgt>
<wgt id='2035'> +6.0375940e+01 </wgt>
<wgt id='2036'> +6.0258517e+01 </wgt>
<wgt id='2037'> +6.0345783e+01 </wgt>
<wgt id='2038'> +6.0326965e+01 </wgt>
<wgt id='2039'> +6.0277156e+01 </wgt>
<wgt id='2040'> +6.0694916e+01 </wgt>
<wgt id='2041'> +5.9920907e+01 </wgt>
<wgt id='2042'> +5.9970068e+01 </wgt>
<wgt id='2043'> +6.0645102e+01 </wgt>
<wgt id='2044'> +6.0527892e+01 </wgt>
<wgt id='2045'> +6.0080067e+01 </wgt>
<wgt id='2046'> +6.0236410e+01 </wgt>
<wgt id='2047'> +6.0361099e+01 </wgt>
<wgt id='2048'> +6.0296972e+01 </wgt>
<wgt id='2049'> +6.0122111e+01 </wgt>
<wgt id='2050'> +6.0335349e+01 </wgt>
<wgt id='2051'> +6.0277905e+01 </wgt>
<wgt id='2052'> +6.0259036e+01 </wgt>
<wgt id='2053'> +6.0357281e+01 </wgt>
<wgt id='2054'> +6.0781660e+01 </wgt>
<wgt id='2055'> +5.9851949e+01 </wgt>
<wgt id='2056'> +5.9885007e+01 </wgt>
<wgt id='2057'> +6.0736171e+01 </wgt>
<wgt id='2058'> +5.9312001e+01 </wgt>
<wgt id='2059'> +6.1287796e+01 </wgt>
<wgt id='2060'> +5.9854362e+01 </wgt>
<wgt id='2061'> +6.0764294e+01 </wgt>
<wgt id='2062'> +6.1175006e+01 </wgt>
<wgt id='2063'> +6.0508973e+01 </wgt>
<wgt id='2064'> +5.9587580e+01 </wgt>
<wgt id='2065'> +6.0476141e+01 </wgt>
<wgt id='2066'> +6.0041666e+01 </wgt>
<wgt id='2067'> +5.9008847e+01 </wgt>
<wgt id='2068'> +6.0003722e+01 </wgt>
<wgt id='2069'> +6.0235011e+01 </wgt>
<wgt id='2070'> +6.0417222e+01 </wgt>
<wgt id='2071'> +6.0626763e+01 </wgt>
<wgt id='2072'> +5.8213714e+01 </wgt>
<wgt id='2073'> +6.0182335e+01 </wgt>
<wgt id='2074'> +6.0366459e+01 </wgt>
<wgt id='2075'> +6.0928042e+01 </wgt>
<wgt id='2076'> +5.9906628e+01 </wgt>
<wgt id='2077'> +5.9900994e+01 </wgt>
<wgt id='2078'> +5.9895221e+01 </wgt>
<wgt id='2079'> +5.9889706e+01 </wgt>
<wgt id='2080'> +5.9884057e+01 </wgt>
<wgt id='2081'> +5.9878639e+01 </wgt>
<wgt id='2082'> +5.9872954e+01 </wgt>
<wgt id='2083'> +5.9867321e+01 </wgt>
<wgt id='2084'> +5.9861592e+01 </wgt>
<wgt id='2085'> +5.9856231e+01 </wgt>
<wgt id='2086'> +5.9850476e+01 </wgt>
<wgt id='2087'> +5.9845032e+01 </wgt>
<wgt id='2088'> +5.9839358e+01 </wgt>
<wgt id='2089'> +5.9833727e+01 </wgt>
<wgt id='2090'> +5.9828198e+01 </wgt>
<wgt id='2091'> +5.9822483e+01 </wgt>
<wgt id='2092'> +5.9816896e+01 </wgt>
<wgt id='2093'> +5.9811213e+01 </wgt>
<wgt id='2094'> +5.9805794e+01 </wgt>
<wgt id='2095'> +5.9800098e+01 </wgt>
<wgt id='2096'> +5.9794497e+01 </wgt>
<wgt id='2097'> +5.9788939e+01 </wgt>
<wgt id='2098'> +5.9783218e+01 </wgt>
<wgt id='2099'> +5.9777892e+01 </wgt>
<wgt id='2100'> +5.9772176e+01 </wgt>
<wgt id='2101'> +5.9766517e+01 </wgt>
<wgt id='2102'> +5.9760853e+01 </wgt>
<wgt id='2103'> +5.9755424e+01 </wgt>
<wgt id='2104'> +5.9749929e+01 </wgt>
<wgt id='2105'> +5.9744160e+01 </wgt>
<wgt id='2106'> +5.9738614e+01 </wgt>
<wgt id='2107'> +6.0712200e+01 </wgt>
<wgt id='2108'> +6.0661290e+01 </wgt>
<wgt id='2109'> +6.0787357e+01 </wgt>
<wgt id='2110'> +6.0577523e+01 </wgt>
<wgt id='2111'> +6.0887859e+01 </wgt>
<wgt id='2112'> +6.1031414e+01 </wgt>
<wgt id='2113'> +6.0803343e+01 </wgt>
<wgt id='2114'> +6.0345406e+01 </wgt>
<wgt id='2115'> +6.0547332e+01 </wgt>
<wgt id='2116'> +6.0781707e+01 </wgt>
<wgt id='2117'> +6.0383497e+01 </wgt>
<wgt id='2118'> +6.1034782e+01 </wgt>
<wgt id='2119'> +6.1458236e+01 </wgt>
<wgt id='2120'> +6.0839176e+01 </wgt>
<wgt id='2121'> +6.1109028e+01 </wgt>
<wgt id='2122'> +6.0424089e+01 </wgt>
<wgt id='2123'> +6.1326775e+01 </wgt>
<wgt id='2124'> +6.0123009e+01 </wgt>
<wgt id='2125'> +6.0801788e+01 </wgt>
<wgt id='2126'> +6.0991321e+01 </wgt>
<wgt id='2127'> +6.1275617e+01 </wgt>
<wgt id='2128'> +6.0609910e+01 </wgt>
<wgt id='2129'> +6.0879339e+01 </wgt>
<wgt id='2130'> +6.0213410e+01 </wgt>
<wgt id='2131'> +6.0502069e+01 </wgt>
<wgt id='2132'> +6.0890941e+01 </wgt>
<wgt id='2133'> +6.0695734e+01 </wgt>
<wgt id='2134'> +6.0704690e+01 </wgt>
<wgt id='2135'> +6.0770505e+01 </wgt>
<wgt id='2136'> +6.0722066e+01 </wgt>
<wgt id='2137'> +6.0733370e+01 </wgt>
<wgt id='2138'> +6.0650574e+01 </wgt>
<wgt id='2139'> +6.0745493e+01 </wgt>
<wgt id='2140'> +6.0746453e+01 </wgt>
<wgt id='2141'> +6.0754654e+01 </wgt>
<wgt id='2142'> +6.0723648e+01 </wgt>
<wgt id='2143'> +6.0767405e+01 </wgt>
<wgt id='2144'> +6.0783683e+01 </wgt>
<wgt id='2145'> +6.0792249e+01 </wgt>
<wgt id='2146'> +6.0701292e+01 </wgt>
<wgt id='2147'> +6.0657375e+01 </wgt>
<wgt id='2148'> +6.0709883e+01 </wgt>
<wgt id='2149'> +6.0755107e+01 </wgt>
<wgt id='2150'> +6.0617364e+01 </wgt>
<wgt id='2151'> +6.0763779e+01 </wgt>
<wgt id='2152'> +6.0756020e+01 </wgt>
<wgt id='2153'> +6.0661213e+01 </wgt>
<wgt id='2154'> +6.0758028e+01 </wgt>
<wgt id='2155'> +6.0773873e+01 </wgt>
<wgt id='2156'> +6.0652181e+01 </wgt>
<wgt id='2157'> +6.0711841e+01 </wgt>
<wgt id='2158'> +6.0778771e+01 </wgt>
<wgt id='2159'> +6.0780358e+01 </wgt>
<wgt id='2160'> +6.0695455e+01 </wgt>
<wgt id='2161'> +6.0688061e+01 </wgt>
<wgt id='2162'> +6.0655984e+01 </wgt>
<wgt id='2163'> +6.0731169e+01 </wgt>
<wgt id='2164'> +6.0719507e+01 </wgt>
<wgt id='2165'> +6.0622821e+01 </wgt>
<wgt id='2166'> +6.0683509e+01 </wgt>
<wgt id='2167'> +6.0680817e+01 </wgt>
<wgt id='2168'> +6.0710708e+01 </wgt>
<wgt id='2169'> +6.0714249e+01 </wgt>
<wgt id='2170'> +6.0731461e+01 </wgt>
<wgt id='2171'> +6.0691764e+01 </wgt>
<wgt id='2172'> +6.0694337e+01 </wgt>
<wgt id='2173'> +6.0714940e+01 </wgt>
<wgt id='2174'> +6.0735203e+01 </wgt>
<wgt id='2175'> +6.0713754e+01 </wgt>
<wgt id='2176'> +6.0782883e+01 </wgt>
<wgt id='2177'> +6.0697839e+01 </wgt>
<wgt id='2178'> +6.0764760e+01 </wgt>
<wgt id='2179'> +6.0773138e+01 </wgt>
<wgt id='2180'> +6.0707527e+01 </wgt>
<wgt id='2181'> +6.0714596e+01 </wgt>
<wgt id='2182'> +6.0691268e+01 </wgt>
<wgt id='2183'> +6.0695626e+01 </wgt>
<wgt id='2184'> +6.0747213e+01 </wgt>
<wgt id='2185'> +6.0715447e+01 </wgt>
<wgt id='2186'> +6.0716380e+01 </wgt>
<wgt id='2187'> +6.0789666e+01 </wgt>
<wgt id='2188'> +6.0722307e+01 </wgt>
<wgt id='2189'> +6.0739195e+01 </wgt>
<wgt id='2190'> +6.0697123e+01 </wgt>
<wgt id='2191'> +6.0681921e+01 </wgt>
<wgt id='2192'> +6.0672853e+01 </wgt>
<wgt id='2193'> +6.0744822e+01 </wgt>
<wgt id='2194'> +6.0630776e+01 </wgt>
<wgt id='2195'> +6.0685422e+01 </wgt>
<wgt id='2196'> +6.0685687e+01 </wgt>
<wgt id='2197'> +6.0734061e+01 </wgt>
<wgt id='2198'> +6.0679151e+01 </wgt>
<wgt id='2199'> +6.0701938e+01 </wgt>
<wgt id='2200'> +6.0689274e+01 </wgt>
<wgt id='2201'> +6.0696701e+01 </wgt>
<wgt id='2202'> +6.0711185e+01 </wgt>
<wgt id='2203'> +6.0692160e+01 </wgt>
<wgt id='2204'> +6.0719179e+01 </wgt>
<wgt id='2205'> +6.0712128e+01 </wgt>
<wgt id='2206'> +6.0694688e+01 </wgt>
<wgt id='2207'> +6.0708624e+01 </wgt>
<wgt id='2208'> +6.0711550e+01 </wgt>
<wgt id='2209'> +6.0707901e+01 </wgt>
<wgt id='2210'> +6.0712886e+01 </wgt>
<wgt id='2211'> +6.0712996e+01 </wgt>
<wgt id='2212'> +6.0714192e+01 </wgt>
<wgt id='2213'> +6.0712494e+01 </wgt>
<wgt id='2214'> +6.0709329e+01 </wgt>
<wgt id='2215'> +6.4725452e+01 </wgt>
<wgt id='2216'> +6.6152045e+01 </wgt>
<wgt id='2217'> +6.5223032e+01 </wgt>
<wgt id='2218'> +6.6391056e+01 </wgt>
<wgt id='2219'> +6.3034392e+01 </wgt>
<wgt id='2220'> +6.5691178e+01 </wgt>
<wgt id='2221'> +6.6190410e+01 </wgt>
<wgt id='2222'> +6.3960215e+01 </wgt>
<wgt id='2223'> +6.4942993e+01 </wgt>
<wgt id='2224'> +6.6190935e+01 </wgt>
<wgt id='2225'> +6.4081703e+01 </wgt>
<wgt id='2226'> +6.0733152e+01 </wgt>
<wgt id='2227'> +6.5354056e+01 </wgt>
<wgt id='2228'> +6.4639858e+01 </wgt>
<wgt id='2229'> +6.5039978e+01 </wgt>
<wgt id='2230'> +6.6652250e+01 </wgt>
<wgt id='2231'> +6.5734142e+01 </wgt>
<wgt id='2232'> +6.6097461e+01 </wgt>
<wgt id='2233'> +6.6241209e+01 </wgt>
<wgt id='2234'> +6.4928791e+01 </wgt>
<wgt id='2235'> +6.8197459e+01 </wgt>
<wgt id='2236'> +6.4909924e+01 </wgt>
<wgt id='2237'> +6.3389549e+01 </wgt>
<wgt id='2238'> +6.7032655e+01 </wgt>
<wgt id='2239'> +6.4281838e+01 </wgt>
<wgt id='2240'> +6.3676388e+01 </wgt>
<wgt id='2241'> +6.4869069e+01 </wgt>
<wgt id='2242'> +6.6144804e+01 </wgt>
<wgt id='2243'> +6.3929997e+01 </wgt>
<wgt id='2244'> +6.6925839e+01 </wgt>
<wgt id='2245'> +6.6713908e+01 </wgt>
<wgt id='2246'> +6.3487348e+01 </wgt>
<wgt id='2247'> +6.3210313e+01 </wgt>
<wgt id='2248'> +6.2445074e+01 </wgt>
<wgt id='2249'> +6.3845736e+01 </wgt>
<wgt id='2250'> +6.6669889e+01 </wgt>
<wgt id='2251'> +6.3774329e+01 </wgt>
<wgt id='2252'> +6.5881531e+01 </wgt>
<wgt id='2253'> +6.4802300e+01 </wgt>
<wgt id='2254'> +6.5136914e+01 </wgt>
<wgt id='2255'> +6.3020658e+01 </wgt>
<wgt id='2256'> +6.4836979e+01 </wgt>
<wgt id='2257'> +6.3743954e+01 </wgt>
<wgt id='2258'> +6.3121651e+01 </wgt>
<wgt id='2259'> +6.4897269e+01 </wgt>
<wgt id='2260'> +6.3752590e+01 </wgt>
<wgt id='2261'> +6.5607048e+01 </wgt>
<wgt id='2262'> +6.4458605e+01 </wgt>
<wgt id='2263'> +6.5021889e+01 </wgt>
<wgt id='2264'> +6.4575636e+01 </wgt>
<wgt id='2265'> +6.3522628e+01 </wgt>
<wgt id='2266'> +6.3755129e+01 </wgt>
<wgt id='2267'> +6.4027991e+01 </wgt>
<wgt id='2268'> +6.4771597e+01 </wgt>
<wgt id='2269'> +6.4025221e+01 </wgt>
<wgt id='2270'> +6.3017653e+01 </wgt>
<wgt id='2271'> +6.5257629e+01 </wgt>
<wgt id='2272'> +6.4736999e+01 </wgt>
<wgt id='2273'> +6.3320920e+01 </wgt>
<wgt id='2274'> +6.6790471e+01 </wgt>
<wgt id='2275'> +6.4297041e+01 </wgt>
<wgt id='2276'> +6.4334536e+01 </wgt>
<wgt id='2277'> +6.5737870e+01 </wgt>
<wgt id='2278'> +6.2817422e+01 </wgt>
<wgt id='2279'> +6.4837765e+01 </wgt>
<wgt id='2280'> +6.4343377e+01 </wgt>
<wgt id='2281'> +6.3898162e+01 </wgt>
<wgt id='2282'> +6.9335963e+01 </wgt>
<wgt id='2283'> +6.4659410e+01 </wgt>
<wgt id='2284'> +6.2917445e+01 </wgt>
<wgt id='2285'> +6.2473837e+01 </wgt>
<wgt id='2286'> +6.2882285e+01 </wgt>
<wgt id='2287'> +6.5296804e+01 </wgt>
<wgt id='2288'> +6.4552256e+01 </wgt>
<wgt id='2289'> +6.5544137e+01 </wgt>
<wgt id='2290'> +6.4376004e+01 </wgt>
<wgt id='2291'> +6.2680574e+01 </wgt>
<wgt id='2292'> +6.3287387e+01 </wgt>
<wgt id='2293'> +6.5084570e+01 </wgt>
<wgt id='2294'> +6.4343865e+01 </wgt>
<wgt id='2295'> +6.3605810e+01 </wgt>
<wgt id='2296'> +6.4350749e+01 </wgt>
<wgt id='2297'> +6.2847486e+01 </wgt>
<wgt id='2298'> +6.7584079e+01 </wgt>
<wgt id='2299'> +6.3944604e+01 </wgt>
<wgt id='2300'> +6.4877607e+01 </wgt>
<wgt id='2301'> +6.3821061e+01 </wgt>
<wgt id='2302'> +6.5380788e+01 </wgt>
<wgt id='2303'> +6.4733426e+01 </wgt>
<wgt id='2304'> +6.7314292e+01 </wgt>
<wgt id='2305'> +6.3368401e+01 </wgt>
<wgt id='2306'> +6.4551968e+01 </wgt>
<wgt id='2307'> +6.3568446e+01 </wgt>
<wgt id='2308'> +6.5682468e+01 </wgt>
<wgt id='2309'> +6.5917540e+01 </wgt>
<wgt id='2310'> +6.4910789e+01 </wgt>
<wgt id='2311'> +6.4975576e+01 </wgt>
<wgt id='2312'> +6.4555561e+01 </wgt>
<wgt id='2313'> +6.4082074e+01 </wgt>
<wgt id='2314'> +6.5092530e+01 </wgt>
<wgt id='2315'> +6.7539864e+01 </wgt>
<wgt id='2316'> +6.3497713e+01 </wgt>
<wgt id='2317'> +6.5639503e+01 </wgt>
<wgt id='2318'> +6.2360828e+01 </wgt>
<wgt id='2319'> +5.7510942e+01 </wgt>
<wgt id='2320'> +7.2493904e+01 </wgt>
<wgt id='2321'> +6.5313879e+01 </wgt>
<wgt id='2322'> +7.1409858e+01 </wgt>
</rwgt>
</event>
<event>
12      1 +6.1139206e+01 1.79037800e+02 7.56146200e-03 1.07108700e-01
       21 -1    0    0  502  503 +0.0000000000e+00 +0.0000000000e+00 +3.2063795021e+02 3.2063795021e+02 0.0000000000e+00 0.0000e+00 1.0000e+00
       21 -1    0    0  503  504 -0.0000000000e+00 -0.0000000000e+00 -1.2625439489e+02 1.2625439489e+02 0.0000000000e+00 0.0000e+00 1.0000e+00
       -6  2    1    2    0  504 +2.5253071072e+01 +4.0604512846e+01 -4.7783400863e+00 1.7908646128e+02 1.7251864832e+02 0.0000e+00 0.0000e+00
      -24  2    3    3    0    0 -3.0991753436e+01 -2.9318687399e+01 +3.7971732813e+00 8.8843754951e+01 7.7837780396e+01 0.0000e+00 0.0000e+00
        6  2    1    2  502    0 -2.5253071072e+01 -4.0604512846e+01 +1.9916189541e+02 2.6780588382e+02 1.7253430605e+02 0.0000e+00 0.0000e+00
       24  2    5    5    0    0 -7.0538276423e+01 -2.4601406830e-01 +9.9548377445e+01 1.5110162679e+02 8.9140973764e+01 0.0000e+00 0.0000e+00
        4  1    6    6  501    0 +4.9394125502e+00 +2.5488599068e+01 +3.3960364726e+00 2.6183955822e+01 0.0000000000e+00 0.0000e+00 -1.0000e+00
       -3  1    6    6    0  501 -7.5477688973e+01 -2.5734613136e+01 +9.6152340973e+01 1.2491767097e+02 0.0000000000e+00 0.0000e+00 1.0000e+00
        5  1    5    5  502    0 +4.5285205351e+01 -4.0358498778e+01 +9.9613517960e+01 1.1670425703e+02 4.1800000000e+00 0.0000e+00 -1.0000e+00
       15  1    4    4    0    0 -3.2270132344e+01 +1.6418523486e+01 -1.5243740597e+01 3.9284869637e+01 0.0000000000e+00 0.0000e+00 -1.0000e+00
      -16  1    4    4    0    0 +1.2783789079e+00 -4.5737210886e+01 +1.9040913879e+01 4.9558885314e+01 0.0000000000e+00 0.0000e+00 1.0000e+00
       -5  1    3    3    0  504 +5.6244824508e+01 +6.9923200246e+01 -8.5755133676e+00 9.0242706331e+01 4.1800000000e+00 0.0000e+00 1.0000e+00
<scales pt_clust_7="13000.00000" pt_clust_8="13000.00000" pt_clust_9="13000.00000" pt_clust_10="13000.00000" pt_clust_11="13000.00000" pt_clust_12="13000.00000"></scales>
<mgrwt>
<rscale>  2 0.17903402E+03</rscale>
<asrwt>0</asrwt>
<pdfrwt beam="1">  1       21 0.49328915E-01 0.17903779E+03</pdfrwt>
<pdfrwt beam="2">  1       21 0.19423753E-01 0.17902270E+03</pdfrwt>
<totfact> 0.12455010E+03</totfact>
</mgrwt>
<clustering>
<clus scale="   77.838"> 10 11 -1 -1</clus>
<clus scale="   89.141">  7  8 -1 -1</clus>
<clus scale="  172.519"> 10 12 -1 -1</clus>
<clus scale="  172.534">  7  9 -1 -1</clus>
<clus scale="  179.023">  2 10  1 -1</clus>
<clus scale="  179.038">  1  7  2 -1</clus>
</clustering>
<rwgt>
<wgt id='dummy'> +6.1139206e+01 </wgt>
<wgt id='ctGRe_0p_cQj18_0p_cQj38_0p_cQj11_0p_cjj31_0p_ctu8_0p_ctd8_0p_ctj8_0p_cQu8_0p_cQd8_0p_ctu1_0p_ctd1_0p_ctj1_0p_cQu1_0p_cQd1_0p'> +6.1139206e+01 </wgt>
<wgt id='ctGRe_1p_cQj18_0p_cQj38_0p_cQj11_0p_cjj31_0p_ctu8_0p_ctd8_0p_ctj8_0p_cQu8_0p_cQd8_0p_ctu1_0p_ctd1_0p_ctj1_0p_cQu1_0p_cQd1_0p'> +4.3292461e+01 </wgt>
<wgt id='ctGRe_0p_cQj18_1p_cQj38_0p_cQj11_0p_cjj31_0p_ctu8_0p_ctd8_0p_ctj8_0p_cQu8_0p_cQd8_0p_ctu1_0p_ctd1_0p_ctj1_0p_cQu1_0p_cQd1_0p'> +6.1139206e+01 </wgt>
<wgt id='ctGRe_0p_cQj18_0p_cQj38_1p_cQj11_0p_cjj31_0p_ctu8_0p_ctd8_0p_ctj8_0p_cQu8_0p_cQd8_0p_ctu1_0p_ctd1_0p_ctj1_0p_cQu1_0p_cQd1_0p'> +6.1139206e+01 </wgt>
<wgt id='ctGRe_0p_cQj18_0p_cQj38_0p_cQj11_1p_cjj31_0p_ctu8_0p_ctd8_0p_ctj8_0p_cQu8_0p_cQd8_0p_ctu1_0p_ctd1_0p_ctj1_0p_cQu1_0p_cQd1_0p'> +6.1139206e+01 </wgt>
<wgt id='ctGRe_0p_cQj18_0p_cQj38_0p_cQj11_0p_cjj31_1p_ctu8_0p_ctd8_0p_ctj8_0p_cQu8_0p_cQd8_0p_ctu1_0p_ctd1_0p_ctj1_0p_cQu1_0p_cQd1_0p'> +6.1139206e+01 </wgt>
<wgt id='ctGRe_0p_cQj18_0p_cQj38_0p_cQj11_0p_cjj31_0p_ctu8_1p_ctd8_0p_ctj8_0p_cQu8_0p_cQd8_0p_ctu1_0p_ctd1_0p_ctj1_0p_cQu1_0p_cQd1_0p'> +6.1139206e+01 </wgt>
<wgt id='ctGRe_0p_cQj18_0p_cQj38_0p_cQj11_0p_cjj31_0p_ctu8_0p_ctd8_1p_ctj8_0p_cQu8_0p_cQd8_0p_ctu1_0p_ctd1_0p_ctj1_0p_cQu1_0p_cQd1_0p'> +6.1139206e+01 </wgt>
<wgt id='ctGRe_0p_cQj18_0p_cQj38_0p_cQj11_0p_cjj31_0p_ctu8_0p_ctd8_0p_ctj8_1p_cQu8_0p_cQd8_0p_ctu1_0p_ctd1_0p_ctj1_0p_cQu1_0p_cQd1_0p'> +6.1139206e+01 </wgt>
<wgt id='ctGRe_0p_cQj18_0p_cQj38_0p_cQj11_0p_cjj31_0p_ctu8_0p_ctd8_0p_ctj8_0p_cQu8_1p_cQd8_0p_ctu1_0p_ctd1_0p_ctj1_0p_cQu1_0p_cQd1_0p'> +6.1139206e+01 </wgt>
<wgt id='ctGRe_0p_cQj18_0p_cQj38_0p_cQj11_0p_cjj31_0p_ctu8_0p_ctd8_0p_ctj8_0p_cQu8_0p_cQd8_1p_ctu1_0p_ctd1_0p_ctj1_0p_cQu1_0p_cQd1_0p'> +6.1139206e+01 </wgt>
<wgt id='ctGRe_0p_cQj18_0p_cQj38_0p_cQj11_0p_cjj31_0p_ctu8_0p_ctd8_0p_ctj8_0p_cQu8_0p_cQd8_0p_ctu1_1p_ctd1_0p_ctj1_0p_cQu1_0p_cQd1_0p'> +6.1139206e+01 </wgt>
<wgt id='ctGRe_0p_cQj18_0p_cQj38_0p_cQj11_0p_cjj31_0p_ctu8_0p_ctd8_0p_ctj8_0p_cQu8_0p_cQd8_0p_ctu1_0p_ctd1_1p_ctj1_0p_cQu1_0p_cQd1_0p'> +6.1139206e+01 </wgt>
<wgt id='ctGRe_0p_cQj18_0p_cQj38_0p_cQj11_0p_cjj31_0p_ctu8_0p_ctd8_0p_ctj8_0p_cQu8_0p_cQd8_0p_ctu1_0p_ctd1_0p_ctj1_1p_cQu1_0p_cQd1_0p'> +6.1139206e+01 </wgt>
<wgt id='ctGRe_0p_cQj18_0p_cQj38_0p_cQj11_0p_cjj31_0p_ctu8_0p_ctd8_0p_ctj8_0p_cQu8_0p_cQd8_0p_ctu1_0p_ctd1_0p_ctj1_0p_cQu1_1p_cQd1_0p'> +6.1139206e+01 </wgt>
<wgt id='ctGRe_0p_cQj18_0p_cQj38_0p_cQj11_0p_cjj31_0p_ctu8_0p_ctd8_0p_ctj8_0p_cQu8_0p_cQd8_0p_ctu1_0p_ctd1_0p_ctj1_0p_cQu1_0p_cQd1_1p'> +6.1139206e+01 </wgt>
<wgt id='ctGRe_2p_cQj18_0p_cQj38_0p_cQj11_0p_cjj31_0p_ctu8_0p_ctd8_0p_ctj8_0p_cQu8_0p_cQd8_0p_ctu1_0p_ctd1_0p_ctj1_0p_cQu1_0p_cQd1_0p'> +2.8903671e+01 </wgt>
<wgt id='ctGRe_1p_cQj18_1p_cQj38_0p_cQj11_0p_cjj31_0p_ctu8_0p_ctd8_0p_ctj8_0p_cQu8_0p_cQd8_0p_ctu1_0p_ctd1_0p_ctj1_0p_cQu1_0p_cQd1_0p'> +4.3292461e+01 </wgt>
<wgt id='ctGRe_1p_cQj18_0p_cQj38_1p_cQj11_0p_cjj31_0p_ctu8_0p_ctd8_0p_ctj8_0p_cQu8_0p_cQd8_0p_ctu1_0p_ctd1_0p_ctj1_0p_cQu1_0p_cQd1_0p'> +4.3292461e+01 </wgt>
<wgt id='ctGRe_1p_cQj18_0p_cQj38_0p_cQj11_1p_cjj31_0p_ctu8_0p_ctd8_0p_ctj8_0p_cQu8_0p_cQd8_0p_ctu1_0p_ctd1_0p_ctj1_0p_cQu1_0p_cQd1_0p'> +4.3292461e+01 </wgt>
<wgt id='ctGRe_1p_cQj18_0p_cQj38_0p_cQj11_0p_cjj31_1p_ctu8_0p_ctd8_0p_ctj8_0p_cQu8_0p_cQd8_0p_ctu1_0p_ctd1_0p_ctj1_0p_cQu1_0p_cQd1_0p'> +4.3292461e+01 </wgt>
<wgt id='ctGRe_1p_cQj18_0p_cQj38_0p_cQj11_0p_cjj31_0p_ctu8_1p_ctd8_0p_ctj8_0p_cQu8_0p_cQd8_0p_ctu1_0p_ctd1_0p_ctj1_0p_cQu1_0p_cQd1_0p'> +4.3292461e+01 </wgt>
<wgt id='ctGRe_1p_cQj18_0p_cQj38_0p_cQj11_0p_cjj31_0p_ctu8_0p_ctd8_1p_ctj8_0p_cQu8_0p_cQd8_0p_ctu1_0p_ctd1_0p_ctj1_0p_cQu1_0p_cQd1_0p'> +4.3292461e+01 </wgt>
<wgt id='ctGRe_1p_cQj18_0p_cQj38_0p_cQj11_0p_cjj31_0p_ctu8_0p_ctd8_0p_ctj8_1p_cQu8_0p_cQd8_0p_ctu1_0p_ctd1_0p_ctj1_0p_cQu1_0p_cQd1_0p'> +4.3292461e+01 </wgt>
<wgt id='ctGRe_1p_cQj18_0p_cQj38_0p_cQj11_0p_cjj31_0p_ctu8_0p_ctd8_0p_ctj8_0p_cQu8_1p_cQd8_0p_ctu1_0p_ctd1_0p_ctj1_0p_cQu1_0p_cQd1_0p'> +4.3292461e+01 </wgt>
<wgt id='ctGRe_1p_cQj18_0p_cQj38_0p_cQj11_0p_cjj31_0p_ctu8_0p_ctd8_0p_ctj8_0p_cQu8_0p_cQd8_1p_ctu1_0p_ctd1_0p_ctj1_0p_cQu1_0p_cQd1_0p'> +4.3292461e+01 </wgt>
<wgt id='ctGRe_1p_cQj18_0p_cQj38_0p_cQj11_0p_cjj31_0p_ctu8_0p_ctd8_0p_ctj8_0p_cQu8_0p_cQd8_0p_ctu1_1p_ctd1_0p_ctj1_0p_cQu1_0p_cQd1_0p'> +4.3292461e+01 </wgt>
<wgt id='ctGRe_1p_cQj18_0p_cQj38_0p_cQj11_0p_cjj31_0p_ctu8_0p_ctd8_0p_ctj8_0p_cQu8_0p_cQd8_0p_ctu1_0p_ctd1_1p_ctj1_0p_cQu1_0p_cQd1_0p'> +4.3292461e+01 </wgt>
<wgt id='ctGRe_1p_cQj18_0p_cQj38_0p_cQj11_0p_cjj31_0p_ctu8_0p_ctd8_0p_ctj8_0p_cQu8_0p_cQd8_0p_ctu1_0p_ctd1_0p_ctj1_1p_cQu1_0p_cQd1_0p'> +4.3292461e+01 </wgt>
<wgt id='ctGRe_1p_cQj18_0p_cQj38_0p_cQj11_0p_cjj31_0p_ctu8_0p_ctd8_0p_ctj8_0p_cQu8_0p_cQd8_0p_ctu1_0p_ctd1_0p_ctj1_0p_cQu1_1p_cQd1_0p'> +4.3292461e+01 </wgt>
<wgt id='ctGRe_1p_cQj18_0p_cQj38_0p_cQj11_0p_cjj31_0p_ctu8_0p_ctd8_0p_ctj8_0p_cQu8_0p_cQd8_0p_ctu1_0p_ctd1_0p_ctj1_0p_cQu1_0p_cQd1_1p'> +4.3292461e+01 </wgt>
<wgt id='ctGRe_0p_cQj18_2p_cQj38_0p_cQj11_0p_cjj31_0p_ctu8_0p_ctd8_0p_ctj8_0p_cQu8_0p_cQd8_0p_ctu1_0p_ctd1_0p_ctj1_0p_cQu1_0p_cQd1_0p'> +6.1139206e+01 </wgt>
<wgt id='ctGRe_0p_cQj18_1p_cQj38_1p_cQj11_0p_cjj31_0p_ctu8_0p_ctd8_0p_ctj8_0p_cQu8_0p_cQd8_0p_ctu1_0p_ctd1_0p_ctj1_0p_cQu1_0p_cQd1_0p'> +6.1139206e+01 </wgt>
<wgt id='ctGRe_0p_cQj18_1p_cQj38_0p_cQj11_1p_cjj31_0p_ctu8_0p_ctd8_0p_ctj8_0p_cQu8_0p_cQd8_0p_ctu1_0p_ctd1_0p_ctj1_0p_cQu1_0p_cQd1_0p'> +6.1139206e+01 </wgt>
<wgt id='ctGRe_0p_cQj18_1p_cQj38_0p_cQj11_0p_cjj31_1p_ctu8_0p_ctd8_0p_ctj8_0p_cQu8_0p_cQd8_0p_ctu1_0p_ctd1_0p_ctj1_0p_cQu1_0p_cQd1_0p'> +6.1139206e+01 </wgt>
<wgt id='ctGRe_0p_cQj18_1p_cQj38_0p_cQj11_0p_cjj31_0p_ctu8_1p_ctd8_0p_ctj8_0p_cQu8_0p_cQd8_0p_ctu1_0p_ctd1_0p_ctj1_0p_cQu1_0p_cQd1_0p'> +6.1139206e+01 </wgt>
<wgt id='ctGRe_0p_cQj18_1p_cQj38_0p_cQj11_0p_cjj31_0p_ctu8_0p_ctd8_1p_ctj8_0p_cQu8_0p_cQd8_0p_ctu1_0p_ctd1_0p_ctj1_0p_cQu1_0p_cQd1_0p'> +6.1139206e+01 </wgt>
<wgt id='ctGRe_0p_cQj18_1p_cQj38_0p_cQj11_0p_cjj31_0p_ctu8_0p_ctd8_0p_ctj8_1p_cQu8_0p_cQd8_0p_ctu1_0p_ctd1_0p_ctj1_0p_cQu1_0p_cQd1_0p'> +6.1139206e+01 </wgt>
<wgt id='ctGRe_0p_cQj18_1p_cQj38_0p_cQj11_0p_cjj31_0p_ctu8_0p_ctd8_0p_ctj8_0p_cQu8_1p_cQd8_0p_ctu1_0p_ctd1_0p_ctj1_0p_cQu1_0p_cQd1_0p'> +6.1139206e+01 </wgt>
<wgt id='ctGRe_0p_cQj18_1p_cQj38_0p_cQj11_0p_cjj31_0p_ctu8_0p_ctd8_0p_ctj8_0p_cQu8_0p_cQd8_1p_ctu1_0p_ctd1_0p_ctj1_0p_cQu1_0p_cQd1_0p'> +6.1139206e+01 </wgt>
<wgt id='ctGRe_0p_cQj18_1p_cQj38_0p_cQj11_0p_cjj31_0p_ctu8_0p_ctd8_0p_ctj8_0p_cQu8_0p_cQd8_0p_ctu1_1p_ctd1_0p_ctj1_0p_cQu1_0p_cQd1_0p'> +6.1139206e+01 </wgt>
<wgt id='ctGRe_0p_cQj18_1p_cQj38_0p_cQj11_0p_cjj31_0p_ctu8_0p_ctd8_0p_ctj8_0p_cQu8_0p_cQd8_0p_ctu1_0p_ctd1_1p_ctj1_0p_cQu1_0p_cQd1_0p'> +6.1139206e+01 </wgt>
<wgt id='ctGRe_0p_cQj18_1p_cQj38_0p_cQj11_0p_cjj31_0p_ctu8_0p_ctd8_0p_ctj8_0p_cQu8_0p_cQd8_0p_ctu1_0p_ctd1_0p_ctj1_1p_cQu1_0p_cQd1_0p'> +6.1139206e+01 </wgt>
<wgt id='ctGRe_0p_cQj18_1p_cQj38_0p_cQj11_0p_cjj31_0p_ctu8_0p_ctd8_0p_ctj8_0p_cQu8_0p_cQd8_0p_ctu1_0p_ctd1_0p_ctj1_0p_cQu1_1p_cQd1_0p'> +6.1139206e+01 </wgt>
<wgt id='ctGRe_0p_cQj18_1p_cQj38_0p_cQj11_0p_cjj31_0p_ctu8_0p_ctd8_0p_ctj8_0p_cQu8_0p_cQd8_0p_ctu1_0p_ctd1_0p_ctj1_0p_cQu1_0p_cQd1_1p'> +6.1139206e+01 </wgt>
<wgt id='ctGRe_0p_cQj18_0p_cQj38_2p_cQj11_0p_cjj31_0p_ctu8_0p_ctd8_0p_ctj8_0p_cQu8_0p_cQd8_0p_ctu1_0p_ctd1_0p_ctj1_0p_cQu1_0p_cQd1_0p'> +6.1139206e+01 </wgt>
<wgt id='ctGRe_0p_cQj18_0p_cQj38_1p_cQj11_1p_cjj31_0p_ctu8_0p_ctd8_0p_ctj8_0p_cQu8_0p_cQd8_0p_ctu1_0p_ctd1_0p_ctj1_0p_cQu1_0p_cQd1_0p'> +6.1139206e+01 </wgt>
<wgt id='ctGRe_0p_cQj18_0p_cQj38_1p_cQj11_0p_cjj31_1p_ctu8_0p_ctd8_0p_ctj8_0p_cQu8_0p_cQd8_0p_ctu1_0p_ctd1_0p_ctj1_0p_cQu1_0p_cQd1_0p'> +6.1139206e+01 </wgt>
<wgt id='ctGRe_0p_cQj18_0p_cQj38_1p_cQj11_0p_cjj31_0p_ctu8_1p_ctd8_0p_ctj8_0p_cQu8_0p_cQd8_0p_ctu1_0p_ctd1_0p_ctj1_0p_cQu1_0p_cQd1_0p'> +6.1139206e+01 </wgt>
<wgt id='ctGRe_0p_cQj18_0p_cQj38_1p_cQj11_0p_cjj31_0p_ctu8_0p_ctd8_1p_ctj8_0p_cQu8_0p_cQd8_0p_ctu1_0p_ctd1_0p_ctj1_0p_cQu1_0p_cQd1_0p'> +6.1139206e+01 </wgt>
<wgt id='ctGRe_0p_cQj18_0p_cQj38_1p_cQj11_0p_cjj31_0p_ctu8_0p_ctd8_0p_ctj8_1p_cQu8_0p_cQd8_0p_ctu1_0p_ctd1_0p_ctj1_0p_cQu1_0p_cQd1_0p'> +6.1139206e+01 </wgt>
<wgt id='ctGRe_0p_cQj18_0p_cQj38_1p_cQj11_0p_cjj31_0p_ctu8_0p_ctd8_0p_ctj8_0p_cQu8_1p_cQd8_0p_ctu1_0p_ctd1_0p_ctj1_0p_cQu1_0p_cQd1_0p'> +6.1139206e+01 </wgt>
<wgt id='ctGRe_0p_cQj18_0p_cQj38_1p_cQj11_0p_cjj31_0p_ctu8_0p_ctd8_0p_ctj8_0p_cQu8_0p_cQd8_1p_ctu1_0p_ctd1_0p_ctj1_0p_cQu1_0p_cQd1_0p'> +6.1139206e+01 </wgt>
<wgt id='ctGRe_0p_cQj18_0p_cQj38_1p_cQj11_0p_cjj31_0p_ctu8_0p_ctd8_0p_ctj8_0p_cQu8_0p_cQd8_0p_ctu1_1p_ctd1_0p_ctj1_0p_cQu1_0p_cQd1_0p'> +6.1139206e+01 </wgt>
<wgt id='ctGRe_0p_cQj18_0p_cQj38_1p_cQj11_0p_cjj31_0p_ctu8_0p_ctd8_0p_ctj8_0p_cQu8_0p_cQd8_0p_ctu1_0p_ctd1_1p_ctj1_0p_cQu1_0p_cQd1_0p'> +6.1139206e+01 </wgt>
<wgt id='ctGRe_0p_cQj18_0p_cQj38_1p_cQj11_0p_cjj31_0p_ctu8_0p_ctd8_0p_ctj8_0p_cQu8_0p_cQd8_0p_ctu1_0p_ctd1_0p_ctj1_1p_cQu1_0p_cQd1_0p'> +6.1139206e+01 </wgt>
<wgt id='ctGRe_0p_cQj18_0p_cQj38_1p_cQj11_0p_cjj31_0p_ctu8_0p_ctd8_0p_ctj8_0p_cQu8_0p_cQd8_0p_ctu1_0p_ctd1_0p_ctj1_0p_cQu1_1p_cQd1_0p'> +6.1139206e+01 </wgt>
<wgt id='ctGRe_0p_cQj18_0p_cQj38_1p_cQj11_0p_cjj31_0p_ctu8_0p_ctd8_0p_ctj8_0p_cQu8_0p_cQd8_0p_ctu1_0p_ctd1_0p_ctj1_0p_cQu1_0p_cQd1_1p'> +6.1139206e+01 </wgt>
<wgt id='ctGRe_0p_cQj18_0p_cQj38_0p_cQj11_2p_cjj31_0p_ctu8_0p_ctd8_0p_ctj8_0p_cQu8_0p_cQd8_0p_ctu1_0p_ctd1_0p_ctj1_0p_cQu1_0p_cQd1_0p'> +6.1139206e+01 </wgt>
<wgt id='ctGRe_0p_cQj18_0p_cQj38_0p_cQj11_1p_cjj31_1p_ctu8_0p_ctd8_0p_ctj8_0p_cQu8_0p_cQd8_0p_ctu1_0p_ctd1_0p_ctj1_0p_cQu1_0p_cQd1_0p'> +6.1139206e+01 </wgt>
<wgt id='ctGRe_0p_cQj18_0p_cQj38_0p_cQj11_1p_cjj31_0p_ctu8_1p_ctd8_0p_ctj8_0p_cQu8_0p_cQd8_0p_ctu1_0p_ctd1_0p_ctj1_0p_cQu1_0p_cQd1_0p'> +6.1139206e+01 </wgt>
<wgt id='ctGRe_0p_cQj18_0p_cQj38_0p_cQj11_1p_cjj31_0p_ctu8_0p_ctd8_1p_ctj8_0p_cQu8_0p_cQd8_0p_ctu1_0p_ctd1_0p_ctj1_0p_cQu1_0p_cQd1_0p'> +6.1139206e+01 </wgt>
<wgt id='ctGRe_0p_cQj18_0p_cQj38_0p_cQj11_1p_cjj31_0p_ctu8_0p_ctd8_0p_ctj8_1p_cQu8_0p_cQd8_0p_ctu1_0p_ctd1_0p_ctj1_0p_cQu1_0p_cQd1_0p'> +6.1139206e+01 </wgt>
<wgt id='ctGRe_0p_cQj18_0p_cQj38_0p_cQj11_1p_cjj31_0p_ctu8_0p_ctd8_0p_ctj8_0p_cQu8_1p_cQd8_0p_ctu1_0p_ctd1_0p_ctj1_0p_cQu1_0p_cQd1_0p'> +6.1139206e+01 </wgt>
<wgt id='ctGRe_0p_cQj18_0p_cQj38_0p_cQj11_1p_cjj31_0p_ctu8_0p_ctd8_0p_ctj8_0p_cQu8_0p_cQd8_1p_ctu1_0p_ctd1_0p_ctj1_0p_cQu1_0p_cQd1_0p'> +6.1139206e+01 </wgt>
<wgt id='ctGRe_0p_cQj18_0p_cQj38_0p_cQj11_1p_cjj31_0p_ctu8_0p_ctd8_0p_ctj8_0p_cQu8_0p_cQd8_0p_ctu1_1p_ctd1_0p_ctj1_0p_cQu1_0p_cQd1_0p'> +6.1139206e+01 </wgt>
<wgt id='ctGRe_0p_cQj18_0p_cQj38_0p_cQj11_1p_cjj31_0p_ctu8_0p_ctd8_0p_ctj8_0p_cQu8_0p_cQd8_0p_ctu1_0p_ctd1_1p_ctj1_0p_cQu1_0p_cQd1_0p'> +6.1139206e+01 </wgt>
<wgt id='ctGRe_0p_cQj18_0p_cQj38_0p_cQj11_1p_cjj31_0p_ctu8_0p_ctd8_0p_ctj8_0p_cQu8_0p_cQd8_0p_ctu1_0p_ctd1_0p_ctj1_1p_cQu1_0p_cQd1_0p'> +6.1139206e+01 </wgt>
<wgt id='ctGRe_0p_cQj18_0p_cQj38_0p_cQj11_1p_cjj31_0p_ctu8_0p_ctd8_0p_ctj8_0p_cQu8_0p_cQd8_0p_ctu1_0p_ctd1_0p_ctj1_0p_cQu1_1p_cQd1_0p'> +6.1139206e+01 </wgt>
<wgt id='ctGRe_0p_cQj18_0p_cQj38_0p_cQj11_1p_cjj31_0p_ctu8_0p_ctd8_0p_ctj8_0p_cQu8_0p_cQd8_0p_ctu1_0p_ctd1_0p_ctj1_0p_cQu1_0p_cQd1_1p'> +6.1139206e+01 </wgt>
<wgt id='ctGRe_0p_cQj18_0p_cQj38_0p_cQj11_0p_cjj31_2p_ctu8_0p_ctd8_0p_ctj8_0p_cQu8_0p_cQd8_0p_ctu1_0p_ctd1_0p_ctj1_0p_cQu1_0p_cQd1_0p'> +6.1139206e+01 </wgt>
<wgt id='ctGRe_0p_cQj18_0p_cQj38_0p_cQj11_0p_cjj31_1p_ctu8_1p_ctd8_0p_ctj8_0p_cQu8_0p_cQd8_0p_ctu1_0p_ctd1_0p_ctj1_0p_cQu1_0p_cQd1_0p'> +6.1139206e+01 </wgt>
<wgt id='ctGRe_0p_cQj18_0p_cQj38_0p_cQj11_0p_cjj31_1p_ctu8_0p_ctd8_1p_ctj8_0p_cQu8_0p_cQd8_0p_ctu1_0p_ctd1_0p_ctj1_0p_cQu1_0p_cQd1_0p'> +6.1139206e+01 </wgt>
<wgt id='ctGRe_0p_cQj18_0p_cQj38_0p_cQj11_0p_cjj31_1p_ctu8_0p_ctd8_0p_ctj8_1p_cQu8_0p_cQd8_0p_ctu1_0p_ctd1_0p_ctj1_0p_cQu1_0p_cQd1_0p'> +6.1139206e+01 </wgt>
<wgt id='ctGRe_0p_cQj18_0p_cQj38_0p_cQj11_0p_cjj31_1p_ctu8_0p_ctd8_0p_ctj8_0p_cQu8_1p_cQd8_0p_ctu1_0p_ctd1_0p_ctj1_0p_cQu1_0p_cQd1_0p'> +6.1139206e+01 </wgt>
<wgt id='ctGRe_0p_cQj18_0p_cQj38_0p_cQj11_0p_cjj31_1p_ctu8_0p_ctd8_0p_ctj8_0p_cQu8_0p_cQd8_1p_ctu1_0p_ctd1_0p_ctj1_0p_cQu1_0p_cQd1_0p'> +6.1139206e+01 </wgt>
<wgt id='ctGRe_0p_cQj18_0p_cQj38_0p_cQj11_0p_cjj31_1p_ctu8_0p_ctd8_0p_ctj8_0p_cQu8_0p_cQd8_0p_ctu1_1p_ctd1_0p_ctj1_0p_cQu1_0p_cQd1_0p'> +6.1139206e+01 </wgt>
<wgt id='ctGRe_0p_cQj18_0p_cQj38_0p_cQj11_0p_cjj31_1p_ctu8_0p_ctd8_0p_ctj8_0p_cQu8_0p_cQd8_0p_ctu1_0p_ctd1_1p_ctj1_0p_cQu1_0p_cQd1_0p'> +6.1139206e+01 </wgt>
<wgt id='ctGRe_0p_cQj18_0p_cQj38_0p_cQj11_0p_cjj31_1p_ctu8_0p_ctd8_0p_ctj8_0p_cQu8_0p_cQd8_0p_ctu1_0p_ctd1_0p_ctj1_1p_cQu1_0p_cQd1_0p'> +6.1139206e+01 </wgt>
<wgt id='ctGRe_0p_cQj18_0p_cQj38_0p_cQj11_0p_cjj31_1p_ctu8_0p_ctd8_0p_ctj8_0p_cQu8_0p_cQd8_0p_ctu1_0p_ctd1_0p_ctj1_0p_cQu1_1p_cQd1_0p'> +6.1139206e+01 </wgt>
<wgt id='ctGRe_0p_cQj18_0p_cQj38_0p_cQj11_0p_cjj31_1p_ctu8_0p_ctd8_0p_ctj8_0p_cQu8_0p_cQd8_0p_ctu1_0p_ctd1_0p_ctj1_0p_cQu1_0p_cQd1_1p'> +6.1139206e+01 </wgt>
<wgt id='ctGRe_0p_cQj18_0p_cQj38_0p_cQj11_0p_cjj31_0p_ctu8_2p_ctd8_0p_ctj8_0p_cQu8_0p_cQd8_0p_ctu1_0p_ctd1_0p_ctj1_0p_cQu1_0p_cQd1_0p'> +6.1139206e+01 </wgt>
<wgt id='ctGRe_0p_cQj18_0p_cQj38_0p_cQj11_0p_cjj31_0p_ctu8_1p_ctd8_1p_ctj8_0p_cQu8_0p_cQd8_0p_ctu1_0p_ctd1_0p_ctj1_0p_cQu1_0p_cQd1_0p'> +6.1139206e+01 </wgt>
<wgt id='ctGRe_0p_cQj18_0p_cQj38_0p_cQj11_0p_cjj31_0p_ctu8_1p_ctd8_0p_ctj8_1p_cQu8_0p_cQd8_0p_ctu1_0p_ctd1_0p_ctj1_0p_cQu1_0p_cQd1_0p'> +6.1139206e+01 </wgt>
<wgt id='ctGRe_0p_cQj18_0p_cQj38_0p_cQj11_0p_cjj31_0p_ctu8_1p_ctd8_0p_ctj8_0p_cQu8_1p_cQd8_0p_ctu1_0p_ctd1_0p_ctj1_0p_cQu1_0p_cQd1_0p'> +6.1139206e+01 </wgt>
<wgt id='ctGRe_0p_cQj18_0p_cQj38_0p_cQj11_0p_cjj31_0p_ctu8_1p_ctd8_0p_ctj8_0p_cQu8_0p_cQd8_1p_ctu1_0p_ctd1_0p_ctj1_0p_cQu1_0p_cQd1_0p'> +6.1139206e+01 </wgt>
<wgt id='ctGRe_0p_cQj18_0p_cQj38_0p_cQj11_0p_cjj31_0p_ctu8_1p_ctd8_0p_ctj8_0p_cQu8_0p_cQd8_0p_ctu1_1p_ctd1_0p_ctj1_0p_cQu1_0p_cQd1_0p'> +6.1139206e+01 </wgt>
<wgt id='ctGRe_0p_cQj18_0p_cQj38_0p_cQj11_0p_cjj31_0p_ctu8_1p_ctd8_0p_ctj8_0p_cQu8_0p_cQd8_0p_ctu1_0p_ctd1_1p_ctj1_0p_cQu1_0p_cQd1_0p'> +6.1139206e+01 </wgt>
<wgt id='ctGRe_0p_cQj18_0p_cQj38_0p_cQj11_0p_cjj31_0p_ctu8_1p_ctd8_0p_ctj8_0p_cQu8_0p_cQd8_0p_ctu1_0p_ctd1_0p_ctj1_1p_cQu1_0p_cQd1_0p'> +6.1139206e+01 </wgt>
<wgt id='ctGRe_0p_cQj18_0p_cQj38_0p_cQj11_0p_cjj31_0p_ctu8_1p_ctd8_0p_ctj8_0p_cQu8_0p_cQd8_0p_ctu1_0p_ctd1_0p_ctj1_0p_cQu1_1p_cQd1_0p'> +6.1139206e+01 </wgt>
<wgt id='ctGRe_0p_cQj18_0p_cQj38_0p_cQj11_0p_cjj31_0p_ctu8_1p_ctd8_0p_ctj8_0p_cQu8_0p_cQd8_0p_ctu1_0p_ctd1_0p_ctj1_0p_cQu1_0p_cQd1_1p'> +6.1139206e+01 </wgt>
<wgt id='ctGRe_0p_cQj18_0p_cQj38_0p_cQj11_0p_cjj31_0p_ctu8_0p_ctd8_2p_ctj8_0p_cQu8_0p_cQd8_0p_ctu1_0p_ctd1_0p_ctj1_0p_cQu1_0p_cQd1_0p'> +6.1139206e+01 </wgt>
<wgt id='ctGRe_0p_cQj18_0p_cQj38_0p_cQj11_0p_cjj31_0p_ctu8_0p_ctd8_1p_ctj8_1p_cQu8_0p_cQd8_0p_ctu1_0p_ctd1_0p_ctj1_0p_cQu1_0p_cQd1_0p'> +6.1139206e+01 </wgt>
<wgt id='ctGRe_0p_cQj18_0p_cQj38_0p_cQj11_0p_cjj31_0p_ctu8_0p_ctd8_1p_ctj8_0p_cQu8_1p_cQd8_0p_ctu1_0p_ctd1_0p_ctj1_0p_cQu1_0p_cQd1_0p'> +6.1139206e+01 </wgt>
<wgt id='ctGRe_0p_cQj18_0p_cQj38_0p_cQj11_0p_cjj31_0p_ctu8_0p_ctd8_1p_ctj8_0p_cQu8_0p_cQd8_1p_ctu1_0p_ctd1_0p_ctj1_0p_cQu1_0p_cQd1_0p'> +6.1139206e+01 </wgt>
<wgt id='ctGRe_0p_cQj18_0p_cQj38_0p_cQj11_0p_cjj31_0p_ctu8_0p_ctd8_1p_ctj8_0p_cQu8_0p_cQd8_0p_ctu1_1p_ctd1_0p_ctj1_0p_cQu1_0p_cQd1_0p'> +6.1139206e+01 </wgt>
<wgt id='ctGRe_0p_cQj18_0p_cQj38_0p_cQj11_0p_cjj31_0p_ctu8_0p_ctd8_1p_ctj8_0p_cQu8_0p_cQd8_0p_ctu1_0p_ctd1_1p_ctj1_0p_cQu1_0p_cQd1_0p'> +6.1139206e+01 </wgt>
<wgt id='ctGRe_0p_cQj18_0p_cQj38_0p_cQj11_0p_cjj31_0p_ctu8_0p_ctd8_1p_ctj8_0p_cQu8_0p_cQd8_0p_ctu1_0p_ctd1_0p_ctj1_1p_cQu1_0p_cQd1_0p'> +6.1139206e+01 </wgt>
<wgt id='ctGRe_0p_cQj18_0p_cQj38_0p_cQj11_0p_cjj31_0p_ctu8_0p_ctd8_1p_ctj8_0p_cQu8_0p_cQd8_0p_ctu1_0p_ctd1_0p_ctj1_0p_cQu1_1p_cQd1_0p'> +6.1139206e+01 </wgt>
<wgt id='ctGRe_0p_cQj18_0p_cQj38_0p_cQj11_0p_cjj31_0p_ctu8_0p_ctd8_1p_ctj8_0p_cQu8_0p_cQd8_0p_ctu1_0p_ctd1_0p_ctj1_0p_cQu1_0p_cQd1_1p'> +6.1139206e+01 </wgt>
<wgt id='ctGRe_0p_cQj18_0p_cQj38_0p_cQj11_0p_cjj31_0p_ctu8_0p_ctd8_0p_ctj8_2p_cQu8_0p_cQd8_0p_ctu1_0p_ctd1_0p_ctj1_0p_cQu1_0p_cQd1_0p'> +6.1139206e+01 </wgt>
<wgt id='ctGRe_0p_cQj18_0p_cQj38_0p_cQj11_0p_cjj31_0p_ctu8_0p_ctd8_0p_ctj8_1p_cQu8_1p_cQd8_0p_ctu1_0p_ctd1_0p_ctj1_0p_cQu1_0p_cQd1_0p'> +6.1139206e+01 </wgt>
<wgt id='ctGRe_0p_cQj18_0p_cQj38_0p_cQj11_0p_cjj31_0p_ctu8_0p_ctd8_0p_ctj8_1p_cQu8_0p_cQd8_1p_ctu1_0p_ctd1_0p_ctj1_0p_cQu1_0p_cQd1_0p'> +6.1139206e+01 </wgt>
<wgt id='ctGRe_0p_cQj18_0p_cQj38_0p_cQj11_0p_cjj31_0p_ctu8_0p_ctd8_0p_ctj8_1p_cQu8_0p_cQd8_0p_ctu1_1p_ctd1_0p_ctj1_0p_cQu1_0p_cQd1_0p'> +6.1139206e+01 </wgt>
<wgt id='ctGRe_0p_cQj18_0p_cQj38_0p_cQj11_0p_cjj31_0p_ctu8_0p_ctd8_0p_ctj8_1p_cQu8_0p_cQd8_0p_ctu1_0p_ctd1_1p_ctj1_0p_cQu1_0p_cQd1_0p'> +6.1139206e+01 </wgt>
<wgt id='ctGRe_0p_cQj18_0p_cQj38_0p_cQj11_0p_cjj31_0p_ctu8_0p_ctd8_0p_ctj8_1p_cQu8_0p_cQd8_0p_ctu1_0p_ctd1_0p_ctj1_1p_cQu1_0p_cQd1_0p'> +6.1139206e+01 </wgt>
<wgt id='ctGRe_0p_cQj18_0p_cQj38_0p_cQj11_0p_cjj31_0p_ctu8_0p_ctd8_0p_ctj8_1p_cQu8_0p_cQd8_0p_ctu1_0p_ctd1_0p_ctj1_0p_cQu1_1p_cQd1_0p'> +6.1139206e+01 </wgt>
<wgt id='ctGRe_0p_cQj18_0p_cQj38_0p_cQj11_0p_cjj31_0p_ctu8_0p_ctd8_0p_ctj8_1p_cQu8_0p_cQd8_0p_ctu1_0p_ctd1_0p_ctj1_0p_cQu1_0p_cQd1_1p'> +6.1139206e+01 </wgt>
<wgt id='ctGRe_0p_cQj18_0p_cQj38_0p_cQj11_0p_cjj31_0p_ctu8_0p_ctd8_0p_ctj8_0p_cQu8_2p_cQd8_0p_ctu1_0p_ctd1_0p_ctj1_0p_cQu1_0p_cQd1_0p'> +6.1139206e+01 </wgt>
<wgt id='ctGRe_0p_cQj18_0p_cQj38_0p_cQj11_0p_cjj31_0p_ctu8_0p_ctd8_0p_ctj8_0p_cQu8_1p_cQd8_1p_ctu1_0p_ctd1_0p_ctj1_0p_cQu1_0p_cQd1_0p'> +6.1139206e+01 </wgt>
<wgt id='ctGRe_0p_cQj18_0p_cQj38_0p_cQj11_0p_cjj31_0p_ctu8_0p_ctd8_0p_ctj8_0p_cQu8_1p_cQd8_0p_ctu1_1p_ctd1_0p_ctj1_0p_cQu1_0p_cQd1_0p'> +6.1139206e+01 </wgt>
<wgt id='ctGRe_0p_cQj18_0p_cQj38_0p_cQj11_0p_cjj31_0p_ctu8_0p_ctd8_0p_ctj8_0p_cQu8_1p_cQd8_0p_ctu1_0p_ctd1_1p_ctj1_0p_cQu1_0p_cQd1_0p'> +6.1139206e+01 </wgt>
<wgt id='ctGRe_0p_cQj18_0p_cQj38_0p_cQj11_0p_cjj31_0p_ctu8_0p_ctd8_0p_ctj8_0p_cQu8_1p_cQd8_0p_ctu1_0p_ctd1_0p_ctj1_1p_cQu1_0p_cQd1_0p'> +6.1139206e+01 </wgt>
<wgt id='ctGRe_0p_cQj18_0p_cQj38_0p_cQj11_0p_cjj31_0p_ctu8_0p_ctd8_0p_ctj8_0p_cQu8_1p_cQd8_0p_ctu1_0p_ctd1_0p_ctj1_0p_cQu1_1p_cQd1_0p'> +6.1139206e+01 </wgt>
<wgt id='ctGRe_0p_cQj18_0p_cQj38_0p_cQj11_0p_cjj31_0p_ctu8_0p_ctd8_0p_ctj8_0p_cQu8_1p_cQd8_0p_ctu1_0p_ctd1_0p_ctj1_0p_cQu1_0p_cQd1_1p'> +6.1139206e+01 </wgt>
<wgt id='ctGRe_0p_cQj18_0p_cQj38_0p_cQj11_0p_cjj31_0p_ctu8_0p_ctd8_0p_ctj8_0p_cQu8_0p_cQd8_2p_ctu1_0p_ctd1_0p_ctj1_0p_cQu1_0p_cQd1_0p'> +6.1139206e+01 </wgt>
<wgt id='ctGRe_0p_cQj18_0p_cQj38_0p_cQj11_0p_cjj31_0p_ctu8_0p_ctd8_0p_ctj8_0p_cQu8_0p_cQd8_1p_ctu1_1p_ctd1_0p_ctj1_0p_cQu1_0p_cQd1_0p'> +6.1139206e+01 </wgt>
<wgt id='ctGRe_0p_cQj18_0p_cQj38_0p_cQj11_0p_cjj31_0p_ctu8_0p_ctd8_0p_ctj8_0p_cQu8_0p_cQd8_1p_ctu1_0p_ctd1_1p_ctj1_0p_cQu1_0p_cQd1_0p'> +6.1139206e+01 </wgt>
<wgt id='ctGRe_0p_cQj18_0p_cQj38_0p_cQj11_0p_cjj31_0p_ctu8_0p_ctd8_0p_ctj8_0p_cQu8_0p_cQd8_1p_ctu1_0p_ctd1_0p_ctj1_1p_cQu1_0p_cQd1_0p'> +6.1139206e+01 </wgt>
<wgt id='ctGRe_0p_cQj18_0p_cQj38_0p_cQj11_0p_cjj31_0p_ctu8_0p_ctd8_0p_ctj8_0p_cQu8_0p_cQd8_1p_ctu1_0p_ctd1_0p_ctj1_0p_cQu1_1p_cQd1_0p'> +6.1139206e+01 </wgt>
<wgt id='ctGRe_0p_cQj18_0p_cQj38_0p_cQj11_0p_cjj31_0p_ctu8_0p_ctd8_0p_ctj8_0p_cQu8_0p_cQd8_1p_ctu1_0p_ctd1_0p_ctj1_0p_cQu1_0p_cQd1_1p'> +6.1139206e+01 </wgt>
<wgt id='ctGRe_0p_cQj18_0p_cQj38_0p_cQj11_0p_cjj31_0p_ctu8_0p_ctd8_0p_ctj8_0p_cQu8_0p_cQd8_0p_ctu1_2p_ctd1_0p_ctj1_0p_cQu1_0p_cQd1_0p'> +6.1139206e+01 </wgt>
<wgt id='ctGRe_0p_cQj18_0p_cQj38_0p_cQj11_0p_cjj31_0p_ctu8_0p_ctd8_0p_ctj8_0p_cQu8_0p_cQd8_0p_ctu1_1p_ctd1_1p_ctj1_0p_cQu1_0p_cQd1_0p'> +6.1139206e+01 </wgt>
<wgt id='ctGRe_0p_cQj18_0p_cQj38_0p_cQj11_0p_cjj31_0p_ctu8_0p_ctd8_0p_ctj8_0p_cQu8_0p_cQd8_0p_ctu1_1p_ctd1_0p_ctj1_1p_cQu1_0p_cQd1_0p'> +6.1139206e+01 </wgt>
<wgt id='ctGRe_0p_cQj18_0p_cQj38_0p_cQj11_0p_cjj31_0p_ctu8_0p_ctd8_0p_ctj8_0p_cQu8_0p_cQd8_0p_ctu1_1p_ctd1_0p_ctj1_0p_cQu1_1p_cQd1_0p'> +6.1139206e+01 </wgt>
<wgt id='ctGRe_0p_cQj18_0p_cQj38_0p_cQj11_0p_cjj31_0p_ctu8_0p_ctd8_0p_ctj8_0p_cQu8_0p_cQd8_0p_ctu1_1p_ctd1_0p_ctj1_0p_cQu1_0p_cQd1_1p'> +6.1139206e+01 </wgt>
<wgt id='ctGRe_0p_cQj18_0p_cQj38_0p_cQj11_0p_cjj31_0p_ctu8_0p_ctd8_0p_ctj8_0p_cQu8_0p_cQd8_0p_ctu1_0p_ctd1_2p_ctj1_0p_cQu1_0p_cQd1_0p'> +6.1139206e+01 </wgt>
<wgt id='ctGRe_0p_cQj18_0p_cQj38_0p_cQj11_0p_cjj31_0p_ctu8_0p_ctd8_0p_ctj8_0p_cQu8_0p_cQd8_0p_ctu1_0p_ctd1_1p_ctj1_1p_cQu1_0p_cQd1_0p'> +6.1139206e+01 </wgt>
<wgt id='ctGRe_0p_cQj18_0p_cQj38_0p_cQj11_0p_cjj31_0p_ctu8_0p_ctd8_0p_ctj8_0p_cQu8_0p_cQd8_0p_ctu1_0p_ctd1_1p_ctj1_0p_cQu1_1p_cQd1_0p'> +6.1139206e+01 </wgt>
<wgt id='ctGRe_0p_cQj18_0p_cQj38_0p_cQj11_0p_cjj31_0p_ctu8_0p_ctd8_0p_ctj8_0p_cQu8_0p_cQd8_0p_ctu1_0p_ctd1_1p_ctj1_0p_cQu1_0p_cQd1_1p'> +6.1139206e+01 </wgt>
<wgt id='ctGRe_0p_cQj18_0p_cQj38_0p_cQj11_0p_cjj31_0p_ctu8_0p_ctd8_0p_ctj8_0p_cQu8_0p_cQd8_0p_ctu1_0p_ctd1_0p_ctj1_2p_cQu1_0p_cQd1_0p'> +6.1139206e+01 </wgt>
<wgt id='ctGRe_0p_cQj18_0p_cQj38_0p_cQj11_0p_cjj31_0p_ctu8_0p_ctd8_0p_ctj8_0p_cQu8_0p_cQd8_0p_ctu1_0p_ctd1_0p_ctj1_1p_cQu1_1p_cQd1_0p'> +6.1139206e+01 </wgt>
<wgt id='ctGRe_0p_cQj18_0p_cQj38_0p_cQj11_0p_cjj31_0p_ctu8_0p_ctd8_0p_ctj8_0p_cQu8_0p_cQd8_0p_ctu1_0p_ctd1_0p_ctj1_1p_cQu1_0p_cQd1_1p'> +6.1139206e+01 </wgt>
<wgt id='ctGRe_0p_cQj18_0p_cQj38_0p_cQj11_0p_cjj31_0p_ctu8_0p_ctd8_0p_ctj8_0p_cQu8_0p_cQd8_0p_ctu1_0p_ctd1_0p_ctj1_0p_cQu1_2p_cQd1_0p'> +6.1139206e+01 </wgt>
<wgt id='ctGRe_0p_cQj18_0p_cQj38_0p_cQj11_0p_cjj31_0p_ctu8_0p_ctd8_0p_ctj8_0p_cQu8_0p_cQd8_0p_ctu1_0p_ctd1_0p_ctj1_0p_cQu1_1p_cQd1_1p'> +6.1139206e+01 </wgt>
<wgt id='ctGRe_0p_cQj18_0p_cQj38_0p_cQj11_0p_cjj31_0p_ctu8_0p_ctd8_0p_ctj8_0p_cQu8_0p_cQd8_0p_ctu1_0p_ctd1_0p_ctj1_0p_cQu1_0p_cQd1_2p'> +6.1139206e+01 </wgt>
<wgt id='1001'> +6.1139206e+01 </wgt>
<wgt id='1002'> +4.9586428e+01 </wgt>
<wgt id='1003'> +4.9581468e+01 </wgt>
<wgt id='1004'> +6.2329376e+01 </wgt>
<wgt id='1005'> +4.6924643e+01 </wgt>
<wgt id='1006'> +5.1041382e+01 </wgt>
<wgt id='1007'> +4.1994626e+01 </wgt>
<wgt id='1008'> +4.1990698e+01 </wgt>
<wgt id='1009'> +5.1961683e+01 </wgt>
<wgt id='1010'> +3.9880053e+01 </wgt>
<wgt id='1011'> +7.4624319e+01 </wgt>
<wgt id='1012'> +5.9480659e+01 </wgt>
<wgt id='1013'> +5.9474247e+01 </wgt>
<wgt id='1014'> +7.6208179e+01 </wgt>
<wgt id='1015'> +5.6049575e+01 </wgt>
<wgt id='1016'> +5.8324532e+01 </wgt>
<wgt id='1017'> +4.7206989e+01 </wgt>
<wgt id='1018'> +4.7202226e+01 </wgt>
<wgt id='1019'> +5.9474247e+01 </wgt>
<wgt id='1020'> +4.4655143e+01 </wgt>
<wgt id='1021'> +4.8691582e+01 </wgt>
<wgt id='1022'> +3.9979485e+01 </wgt>
<wgt id='1023'> +3.9975711e+01 </wgt>
<wgt id='1024'> +4.9581468e+01 </wgt>
<wgt id='1025'> +3.7951263e+01 </wgt>
<wgt id='1026'> +7.1188829e+01 </wgt>
<wgt id='1027'> +5.6626439e+01 </wgt>
<wgt id='1028'> +5.6620285e+01 </wgt>
<wgt id='1029'> +7.2717302e+01 </wgt>
<wgt id='1030'> +5.3338749e+01 </wgt>
<wgt id='1031'> +6.3815914e+01 </wgt>
<wgt id='1032'> +5.1966809e+01 </wgt>
<wgt id='1033'> +5.1961683e+01 </wgt>
<wgt id='1034'> +6.5027261e+01 </wgt>
<wgt id='1035'> +4.9210259e+01 </wgt>
<wgt id='1036'> +5.3276001e+01 </wgt>
<wgt id='1037'> +4.4010566e+01 </wgt>
<wgt id='1038'> +4.4006510e+01 </wgt>
<wgt id='1039'> +5.4210810e+01 </wgt>
<wgt id='1040'> +4.1822540e+01 </wgt>
<wgt id='1041'> +7.7891413e+01 </wgt>
<wgt id='1042'> +6.2336010e+01 </wgt>
<wgt id='1043'> +6.2329376e+01 </wgt>
<wgt id='1044'> +7.9506799e+01 </wgt>
<wgt id='1045'> +5.8779650e+01 </wgt>
<wgt id='1046'> +6.1139206e+01 </wgt>
<wgt id='1047'> +6.1139206e+01 </wgt>
<wgt id='1048'> +6.1139206e+01 </wgt>
<wgt id='1049'> +6.1214875e+01 </wgt>
<wgt id='1050'> +6.0978116e+01 </wgt>
<wgt id='1051'> +6.1094504e+01 </wgt>
<wgt id='1052'> +6.1276411e+01 </wgt>
<wgt id='1053'> +6.1213894e+01 </wgt>
<wgt id='1054'> +6.1281162e+01 </wgt>
<wgt id='1055'> +6.1305420e+01 </wgt>
<wgt id='1056'> +6.1465855e+01 </wgt>
<wgt id='1057'> +6.1047543e+01 </wgt>
<wgt id='1058'> +6.1112835e+01 </wgt>
<wgt id='1059'> +6.0851906e+01 </wgt>
<wgt id='1060'> +6.1278687e+01 </wgt>
<wgt id='1061'> +6.1217955e+01 </wgt>
<wgt id='1062'> +6.1324511e+01 </wgt>
<wgt id='1063'> +6.1267670e+01 </wgt>
<wgt id='1064'> +6.1142726e+01 </wgt>
<wgt id='1065'> +6.1125711e+01 </wgt>
<wgt id='1066'> +6.1105343e+01 </wgt>
<wgt id='1067'> +6.1357477e+01 </wgt>
<wgt id='1068'> +6.0994286e+01 </wgt>
<wgt id='1069'> +6.1104550e+01 </wgt>
<wgt id='1070'> +6.1066341e+01 </wgt>
<wgt id='1071'> +6.1132524e+01 </wgt>
<wgt id='1072'> +6.1114259e+01 </wgt>
<wgt id='1073'> +6.1098440e+01 </wgt>
<wgt id='1074'> +6.1092167e+01 </wgt>
<wgt id='1075'> +6.0936290e+01 </wgt>
<wgt id='1076'> +6.1220627e+01 </wgt>
<wgt id='1077'> +6.0913434e+01 </wgt>
<wgt id='1078'> +6.1106152e+01 </wgt>
<wgt id='1079'> +6.0946939e+01 </wgt>
<wgt id='1080'> +6.1169769e+01 </wgt>
<wgt id='1081'> +6.1072761e+01 </wgt>
<wgt id='1082'> +6.1054339e+01 </wgt>
<wgt id='1083'> +6.1141303e+01 </wgt>
<wgt id='1084'> +6.1268587e+01 </wgt>
<wgt id='1085'> +6.1133801e+01 </wgt>
<wgt id='1086'> +6.1112878e+01 </wgt>
<wgt id='1087'> +6.1153048e+01 </wgt>
<wgt id='1088'> +6.1092862e+01 </wgt>
<wgt id='1089'> +6.1142745e+01 </wgt>
<wgt id='1090'> +6.1153246e+01 </wgt>
<wgt id='1091'> +6.1107394e+01 </wgt>
<wgt id='1092'> +6.1179453e+01 </wgt>
<wgt id='1093'> +6.1161143e+01 </wgt>
<wgt id='1094'> +6.1150105e+01 </wgt>
<wgt id='1095'> +6.1121547e+01 </wgt>
<wgt id='1096'> +6.1110594e+01 </wgt>
<wgt id='1097'> +6.1094391e+01 </wgt>
<wgt id='1098'> +6.1112566e+01 </wgt>
<wgt id='1099'> +6.1133205e+01 </wgt>
<wgt id='1100'> +6.1191521e+01 </wgt>
<wgt id='1101'> +6.1130169e+01 </wgt>
<wgt id='1102'> +6.1137378e+01 </wgt>
<wgt id='1103'> +6.1149434e+01 </wgt>
<wgt id='1104'> +6.1117057e+01 </wgt>
<wgt id='1105'> +6.1160398e+01 </wgt>
<wgt id='1106'> +6.1147776e+01 </wgt>
<wgt id='1107'> +6.1149429e+01 </wgt>
<wgt id='1108'> +6.1139765e+01 </wgt>
<wgt id='1109'> +6.1131379e+01 </wgt>
<wgt id='1110'> +6.1186166e+01 </wgt>
<wgt id='1111'> +6.1153142e+01 </wgt>
<wgt id='1112'> +6.1152471e+01 </wgt>
<wgt id='1113'> +6.1188080e+01 </wgt>
<wgt id='1114'> +6.1140826e+01 </wgt>
<wgt id='1115'> +6.1156129e+01 </wgt>
<wgt id='1116'> +6.1148010e+01 </wgt>
<wgt id='1117'> +6.1145800e+01 </wgt>
<wgt id='1118'> +6.1145157e+01 </wgt>
<wgt id='1119'> +6.1141381e+01 </wgt>
<wgt id='1120'> +6.1140760e+01 </wgt>
<wgt id='1121'> +6.1151596e+01 </wgt>
<wgt id='1122'> +6.1128980e+01 </wgt>
<wgt id='1123'> +6.1128380e+01 </wgt>
<wgt id='1124'> +6.1133782e+01 </wgt>
<wgt id='1125'> +6.1171674e+01 </wgt>
<wgt id='1126'> +6.1145864e+01 </wgt>
<wgt id='1127'> +6.1125108e+01 </wgt>
<wgt id='1128'> +6.1142483e+01 </wgt>
<wgt id='1129'> +6.1131346e+01 </wgt>
<wgt id='1130'> +6.1147480e+01 </wgt>
<wgt id='1131'> +6.1159144e+01 </wgt>
<wgt id='1132'> +6.1146395e+01 </wgt>
<wgt id='1133'> +6.1138669e+01 </wgt>
<wgt id='1134'> +6.1130914e+01 </wgt>
<wgt id='1135'> +6.1146306e+01 </wgt>
<wgt id='1136'> +6.1135946e+01 </wgt>
<wgt id='1137'> +6.1134223e+01 </wgt>
<wgt id='1138'> +6.1149361e+01 </wgt>
<wgt id='1139'> +6.1139540e+01 </wgt>
<wgt id='1140'> +6.1150871e+01 </wgt>
<wgt id='1141'> +6.1129572e+01 </wgt>
<wgt id='1142'> +6.1140279e+01 </wgt>
<wgt id='1143'> +6.1146742e+01 </wgt>
<wgt id='1144'> +6.1132621e+01 </wgt>
<wgt id='1145'> +6.1145365e+01 </wgt>
<wgt id='1146'> +6.1138190e+01 </wgt>
<wgt id='1147'> +6.1147319e+01 </wgt>
<wgt id='1148'> +6.1139206e+01 </wgt>
<wgt id='1149'> +5.9840438e+01 </wgt>
<wgt id='1150'> +6.2379370e+01 </wgt>
<wgt id='1151'> +6.1139206e+01 </wgt>
<wgt id='1152'> +6.0790462e+01 </wgt>
<wgt id='1153'> +6.0497467e+01 </wgt>
<wgt id='1154'> +6.2211664e+01 </wgt>
<wgt id='1155'> +6.1704295e+01 </wgt>
<wgt id='1156'> +6.0940411e+01 </wgt>
<wgt id='1157'> +6.2960548e+01 </wgt>
<wgt id='1158'> +6.0772663e+01 </wgt>
<wgt id='1159'> +6.0453202e+01 </wgt>
<wgt id='1160'> +6.1893821e+01 </wgt>
<wgt id='1161'> +6.2371688e+01 </wgt>
<wgt id='1162'> +6.2213866e+01 </wgt>
<wgt id='1163'> +6.1294932e+01 </wgt>
<wgt id='1164'> +6.0564195e+01 </wgt>
<wgt id='1165'> +6.0496843e+01 </wgt>
<wgt id='1166'> +6.1498702e+01 </wgt>
<wgt id='1167'> +6.2064875e+01 </wgt>
<wgt id='1168'> +6.2340004e+01 </wgt>
<wgt id='1169'> +6.0963752e+01 </wgt>
<wgt id='1170'> +6.0026978e+01 </wgt>
<wgt id='1171'> +6.0832421e+01 </wgt>
<wgt id='1172'> +5.9965422e+01 </wgt>
<wgt id='1173'> +5.9833463e+01 </wgt>
<wgt id='1174'> +6.0036340e+01 </wgt>
<wgt id='1175'> +6.0104181e+01 </wgt>
<wgt id='1176'> +6.0147087e+01 </wgt>
<wgt id='1177'> +6.0871200e+01 </wgt>
<wgt id='1178'> +6.0214718e+01 </wgt>
<wgt id='1179'> +6.0910978e+01 </wgt>
<wgt id='1180'> +6.2115735e+01 </wgt>
<wgt id='1181'> +6.2459200e+01 </wgt>
<wgt id='1182'> +6.1671353e+01 </wgt>
<wgt id='1183'> +6.2106421e+01 </wgt>
<wgt id='1184'> +6.0503254e+01 </wgt>
<wgt id='1185'> +6.0962329e+01 </wgt>
<wgt id='1186'> +6.2052401e+01 </wgt>
<wgt id='1187'> +6.1091395e+01 </wgt>
<wgt id='1188'> +6.1100483e+01 </wgt>
<wgt id='1189'> +6.0864434e+01 </wgt>
<wgt id='1190'> +6.1457324e+01 </wgt>
<wgt id='1191'> +6.0999530e+01 </wgt>
<wgt id='1192'> +6.1418831e+01 </wgt>
<wgt id='1193'> +6.0653596e+01 </wgt>
<wgt id='1194'> +6.1091081e+01 </wgt>
<wgt id='1195'> +6.0787046e+01 </wgt>
<wgt id='1196'> +6.1253535e+01 </wgt>
<wgt id='1197'> +6.1578887e+01 </wgt>
<wgt id='1198'> +5.9778074e+01 </wgt>
<wgt id='1199'> +5.9796814e+01 </wgt>
<wgt id='1200'> +6.1673900e+01 </wgt>
<wgt id='1201'> +6.2144924e+01 </wgt>
<wgt id='1202'> +6.1270071e+01 </wgt>
<wgt id='1203'> +6.0372597e+01 </wgt>
<wgt id='1204'> +6.0882886e+01 </wgt>
<wgt id='1205'> +6.1226119e+01 </wgt>
<wgt id='1206'> +5.9920076e+01 </wgt>
<wgt id='1207'> +6.0797412e+01 </wgt>
<wgt id='1208'> +6.0730067e+01 </wgt>
<wgt id='1209'> +5.9968534e+01 </wgt>
<wgt id='1210'> +6.2465628e+01 </wgt>
<wgt id='1211'> +6.1359190e+01 </wgt>
<wgt id='1212'> +6.1089062e+01 </wgt>
<wgt id='1213'> +6.0903179e+01 </wgt>
<wgt id='1214'> +5.9693048e+01 </wgt>
<wgt id='1215'> +6.0795784e+01 </wgt>
<wgt id='1216'> +6.0646612e+01 </wgt>
<wgt id='1217'> +6.1360935e+01 </wgt>
<wgt id='1218'> +5.9873813e+01 </wgt>
<wgt id='1219'> +6.1791492e+01 </wgt>
<wgt id='1220'> +6.0793676e+01 </wgt>
<wgt id='1221'> +6.0049579e+01 </wgt>
<wgt id='1222'> +6.2230549e+01 </wgt>
<wgt id='1223'> +6.1305657e+01 </wgt>
<wgt id='1224'> +6.1887843e+01 </wgt>
<wgt id='1225'> +6.2094821e+01 </wgt>
<wgt id='1226'> +6.2171882e+01 </wgt>
<wgt id='1227'> +6.2429411e+01 </wgt>
<wgt id='1228'> +6.0408002e+01 </wgt>
<wgt id='1229'> +6.1756031e+01 </wgt>
<wgt id='1230'> +6.1095059e+01 </wgt>
<wgt id='1231'> +6.1018841e+01 </wgt>
<wgt id='1232'> +5.9824448e+01 </wgt>
<wgt id='1233'> +6.2064875e+01 </wgt>
<wgt id='1234'> +6.1157445e+01 </wgt>
<wgt id='1235'> +6.1159914e+01 </wgt>
<wgt id='1236'> +6.2227499e+01 </wgt>
<wgt id='1237'> +5.9889671e+01 </wgt>
<wgt id='1238'> +6.1778418e+01 </wgt>
<wgt id='1239'> +6.2093854e+01 </wgt>
<wgt id='1240'> +6.3237092e+01 </wgt>
<wgt id='1241'> +6.1010145e+01 </wgt>
<wgt id='1242'> +6.0580885e+01 </wgt>
<wgt id='1243'> +6.2189206e+01 </wgt>
<wgt id='1244'> +6.1684808e+01 </wgt>
<wgt id='1245'> +6.1058137e+01 </wgt>
<wgt id='1246'> +6.1039258e+01 </wgt>
<wgt id='1247'> +6.0562216e+01 </wgt>
<wgt id='1248'> +6.0382826e+01 </wgt>
<wgt id='1249'> +6.1771820e+01 </wgt>
<wgt id='1250'> +6.0565968e+01 </wgt>
<wgt id='1251'> +6.0827384e+01 </wgt>
<wgt id='1252'> +6.1181969e+01 </wgt>
<wgt id='1253'> +6.1110909e+01 </wgt>
<wgt id='1254'> +6.1267987e+01 </wgt>
<wgt id='1255'> +6.1263330e+01 </wgt>
<wgt id='1256'> +6.1318285e+01 </wgt>
<wgt id='1257'> +6.1089691e+01 </wgt>
<wgt id='1258'> +6.1009303e+01 </wgt>
<wgt id='1259'> +6.0943584e+01 </wgt>
<wgt id='1260'> +6.0930622e+01 </wgt>
<wgt id='1261'> +6.1298973e+01 </wgt>
<wgt id='1262'> +6.1198587e+01 </wgt>
<wgt id='1263'> +6.1083782e+01 </wgt>
<wgt id='1264'> +6.1250718e+01 </wgt>
<wgt id='1265'> +6.1255346e+01 </wgt>
<wgt id='1266'> +6.1389096e+01 </wgt>
<wgt id='1267'> +6.1302099e+01 </wgt>
<wgt id='1268'> +6.1222052e+01 </wgt>
<wgt id='1269'> +6.1164581e+01 </wgt>
<wgt id='1270'> +6.1323213e+01 </wgt>
<wgt id='1271'> +6.1187153e+01 </wgt>
<wgt id='1272'> +6.1431799e+01 </wgt>
<wgt id='1273'> +6.1061806e+01 </wgt>
<wgt id='1274'> +6.1351590e+01 </wgt>
<wgt id='1275'> +6.1313477e+01 </wgt>
<wgt id='1276'> +6.1134341e+01 </wgt>
<wgt id='1277'> +6.1387781e+01 </wgt>
<wgt id='1278'> +6.1370739e+01 </wgt>
<wgt id='1279'> +6.1094004e+01 </wgt>
<wgt id='1280'> +6.1045368e+01 </wgt>
<wgt id='1281'> +6.1358496e+01 </wgt>
<wgt id='1282'> +6.1201580e+01 </wgt>
<wgt id='1283'> +6.1252305e+01 </wgt>
<wgt id='1284'> +6.1149946e+01 </wgt>
<wgt id='1285'> +6.1199811e+01 </wgt>
<wgt id='1286'> +6.1287322e+01 </wgt>
<wgt id='1287'> +6.1165452e+01 </wgt>
<wgt id='1288'> +6.1187312e+01 </wgt>
<wgt id='1289'> +6.1248824e+01 </wgt>
<wgt id='1290'> +6.1166235e+01 </wgt>
<wgt id='1291'> +6.1108620e+01 </wgt>
<wgt id='1292'> +6.1181652e+01 </wgt>
<wgt id='1293'> +6.1171262e+01 </wgt>
<wgt id='1294'> +6.1129205e+01 </wgt>
<wgt id='1295'> +6.1179097e+01 </wgt>
<wgt id='1296'> +6.1236014e+01 </wgt>
<wgt id='1297'> +6.1156587e+01 </wgt>
<wgt id='1298'> +6.1235632e+01 </wgt>
<wgt id='1299'> +6.1237309e+01 </wgt>
<wgt id='1300'> +6.1149650e+01 </wgt>
<wgt id='1301'> +6.1171931e+01 </wgt>
<wgt id='1302'> +6.1206669e+01 </wgt>
<wgt id='1303'> +6.1250337e+01 </wgt>
<wgt id='1304'> +6.1182491e+01 </wgt>
<wgt id='1305'> +6.1201496e+01 </wgt>
<wgt id='1306'> +6.1195399e+01 </wgt>
<wgt id='1307'> +6.1178743e+01 </wgt>
<wgt id='1308'> +6.1185242e+01 </wgt>
<wgt id='1309'> +6.1211777e+01 </wgt>
<wgt id='1310'> +6.1198986e+01 </wgt>
<wgt id='1311'> +6.1170641e+01 </wgt>
<wgt id='1312'> +6.1193167e+01 </wgt>
<wgt id='1313'> +6.1150569e+01 </wgt>
<wgt id='1314'> +6.1176091e+01 </wgt>
<wgt id='1315'> +6.1188852e+01 </wgt>
<wgt id='1316'> +6.1154941e+01 </wgt>
<wgt id='1317'> +6.1203882e+01 </wgt>
<wgt id='1318'> +6.1164009e+01 </wgt>
<wgt id='1319'> +6.1183020e+01 </wgt>
<wgt id='1320'> +6.1202211e+01 </wgt>
<wgt id='1321'> +6.1192989e+01 </wgt>
<wgt id='1322'> +6.1175206e+01 </wgt>
<wgt id='1323'> +6.1165061e+01 </wgt>
<wgt id='1324'> +6.1189016e+01 </wgt>
<wgt id='1325'> +6.1188956e+01 </wgt>
<wgt id='1326'> +6.1194869e+01 </wgt>
<wgt id='1327'> +6.1167123e+01 </wgt>
<wgt id='1328'> +6.1191382e+01 </wgt>
<wgt id='1329'> +6.1168752e+01 </wgt>
<wgt id='1330'> +6.1176898e+01 </wgt>
<wgt id='1331'> +6.1189674e+01 </wgt>
<wgt id='1332'> +6.1186409e+01 </wgt>
<wgt id='1333'> +6.1191854e+01 </wgt>
<wgt id='1334'> +6.1191763e+01 </wgt>
<wgt id='1335'> +6.1179701e+01 </wgt>
<wgt id='1336'> +6.1184667e+01 </wgt>
<wgt id='1337'> +6.1180271e+01 </wgt>
<wgt id='1338'> +6.1173774e+01 </wgt>
<wgt id='1339'> +6.1174348e+01 </wgt>
<wgt id='1340'> +6.1187003e+01 </wgt>
<wgt id='1341'> +6.1178516e+01 </wgt>
<wgt id='1342'> +6.1178324e+01 </wgt>
<wgt id='1343'> +6.1179439e+01 </wgt>
<wgt id='1344'> +6.1179070e+01 </wgt>
<wgt id='1345'> +6.1180153e+01 </wgt>
<wgt id='1346'> +6.1180982e+01 </wgt>
<wgt id='1347'> +6.1187622e+01 </wgt>
<wgt id='1348'> +6.1178626e+01 </wgt>
<wgt id='1349'> +6.1191073e+01 </wgt>
<wgt id='1350'> +6.1176978e+01 </wgt>
<wgt id='1351'> +6.1181079e+01 </wgt>
<wgt id='1352'> +6.1184365e+01 </wgt>
<wgt id='1353'> +5.9840438e+01 </wgt>
<wgt id='1354'> +6.2379370e+01 </wgt>
<wgt id='1355'> +5.5339520e+01 </wgt>
<wgt id='1356'> +5.6418855e+01 </wgt>
<wgt id='1357'> +5.7767402e+01 </wgt>
<wgt id='1358'> +5.8972319e+01 </wgt>
<wgt id='1359'> +6.0686525e+01 </wgt>
<wgt id='1360'> +6.1884157e+01 </wgt>
<wgt id='1361'> +6.3292019e+01 </wgt>
<wgt id='1362'> +6.4440762e+01 </wgt>
<wgt id='1363'> +6.2033765e+01 </wgt>
<wgt id='1364'> +6.2118675e+01 </wgt>
<wgt id='1365'> +6.1980157e+01 </wgt>
<wgt id='1366'> +6.2109587e+01 </wgt>
<wgt id='1367'> +6.2171487e+01 </wgt>
<wgt id='1368'> +6.2203145e+01 </wgt>
<wgt id='1369'> +6.2027148e+01 </wgt>
<wgt id='1370'> +6.2212481e+01 </wgt>
<wgt id='1371'> +6.1968148e+01 </wgt>
<wgt id='1372'> +6.2201936e+01 </wgt>
<wgt id='1373'> +6.1909289e+01 </wgt>
<wgt id='1374'> +6.1957634e+01 </wgt>
<wgt id='1375'> +6.2196078e+01 </wgt>
<wgt id='1376'> +6.1974454e+01 </wgt>
<wgt id='1377'> +6.2173841e+01 </wgt>
<wgt id='1378'> +6.1983658e+01 </wgt>
<wgt id='1379'> +6.2068675e+01 </wgt>
<wgt id='1380'> +6.2168306e+01 </wgt>
<wgt id='1381'> +6.2187262e+01 </wgt>
<wgt id='1382'> +6.1862784e+01 </wgt>
<wgt id='1383'> +6.1880857e+01 </wgt>
<wgt id='1384'> +6.1825889e+01 </wgt>
<wgt id='1385'> +6.2021300e+01 </wgt>
<wgt id='1386'> +6.1906567e+01 </wgt>
<wgt id='1387'> +6.1857589e+01 </wgt>
<wgt id='1388'> +6.2059808e+01 </wgt>
<wgt id='1389'> +6.2139361e+01 </wgt>
<wgt id='1390'> +6.2053382e+01 </wgt>
<wgt id='1391'> +6.1818128e+01 </wgt>
<wgt id='1392'> +6.1924098e+01 </wgt>
<wgt id='1393'> +6.2215314e+01 </wgt>
<wgt id='1394'> +6.2121241e+01 </wgt>
<wgt id='1395'> +6.2103066e+01 </wgt>
<wgt id='1396'> +6.2147930e+01 </wgt>
<wgt id='1397'> +6.2069425e+01 </wgt>
<wgt id='1398'> +6.2176680e+01 </wgt>
<wgt id='1399'> +6.2072531e+01 </wgt>
<wgt id='1400'> +6.2025107e+01 </wgt>
<wgt id='1401'> +6.2039673e+01 </wgt>
<wgt id='1402'> +6.2015239e+01 </wgt>
<wgt id='1403'> +6.2016227e+01 </wgt>
<wgt id='1404'> +6.2067785e+01 </wgt>
<wgt id='1405'> +6.1969263e+01 </wgt>
<wgt id='1406'> +6.1967732e+01 </wgt>
<wgt id='1407'> +6.2050145e+01 </wgt>
<wgt id='1408'> +6.2080566e+01 </wgt>
<wgt id='1409'> +6.2083080e+01 </wgt>
<wgt id='1410'> +6.2031932e+01 </wgt>
<wgt id='1411'> +6.2060072e+01 </wgt>
<wgt id='1412'> +6.2022495e+01 </wgt>
<wgt id='1413'> +6.2016254e+01 </wgt>
<wgt id='1414'> +6.2099799e+01 </wgt>
<wgt id='1415'> +6.2003863e+01 </wgt>
<wgt id='1416'> +6.2012125e+01 </wgt>
<wgt id='1417'> +6.2029886e+01 </wgt>
<wgt id='1418'> +6.1984449e+01 </wgt>
<wgt id='1419'> +6.2043343e+01 </wgt>
<wgt id='1420'> +6.2012822e+01 </wgt>
<wgt id='1421'> +6.2000499e+01 </wgt>
<wgt id='1422'> +6.2032996e+01 </wgt>
<wgt id='1423'> +6.2048213e+01 </wgt>
<wgt id='1424'> +6.2038596e+01 </wgt>
<wgt id='1425'> +6.2046848e+01 </wgt>
<wgt id='1426'> +6.2061173e+01 </wgt>
<wgt id='1427'> +6.2017842e+01 </wgt>
<wgt id='1428'> +6.2031745e+01 </wgt>
<wgt id='1429'> +6.2044421e+01 </wgt>
<wgt id='1430'> +6.2008291e+01 </wgt>
<wgt id='1431'> +6.2043131e+01 </wgt>
<wgt id='1432'> +6.2022930e+01 </wgt>
<wgt id='1433'> +6.2042403e+01 </wgt>
<wgt id='1434'> +6.2028002e+01 </wgt>
<wgt id='1435'> +6.2033705e+01 </wgt>
<wgt id='1436'> +6.2009576e+01 </wgt>
<wgt id='1437'> +6.2062134e+01 </wgt>
<wgt id='1438'> +6.2028546e+01 </wgt>
<wgt id='1439'> +6.2035373e+01 </wgt>
<wgt id='1440'> +6.2044749e+01 </wgt>
<wgt id='1441'> +6.2043291e+01 </wgt>
<wgt id='1442'> +6.2029215e+01 </wgt>
<wgt id='1443'> +6.2025214e+01 </wgt>
<wgt id='1444'> +6.2032557e+01 </wgt>
<wgt id='1445'> +6.2021765e+01 </wgt>
<wgt id='1446'> +6.2040709e+01 </wgt>
<wgt id='1447'> +6.2031667e+01 </wgt>
<wgt id='1448'> +6.2038265e+01 </wgt>
<wgt id='1449'> +6.2026572e+01 </wgt>
<wgt id='1450'> +6.2028221e+01 </wgt>
<wgt id='1451'> +6.2032133e+01 </wgt>
<wgt id='1452'> +6.2035169e+01 </wgt>
<wgt id='1453'> +6.2037709e+01 </wgt>
<wgt id='1454'> +6.2034264e+01 </wgt>
<wgt id='1455'> +6.2036091e+01 </wgt>
<wgt id='1456'> +6.2035220e+01 </wgt>
<wgt id='1457'> +6.2044402e+01 </wgt>
<wgt id='1458'> +6.2034879e+01 </wgt>
<wgt id='1459'> +6.2026777e+01 </wgt>
<wgt id='1460'> +6.2023070e+01 </wgt>
<wgt id='1461'> +6.2030473e+01 </wgt>
<wgt id='1462'> +6.2040494e+01 </wgt>
<wgt id='1463'> +6.2036486e+01 </wgt>
<wgt id='1464'> +6.0805567e+01 </wgt>
<wgt id='1465'> +6.3276004e+01 </wgt>
<wgt id='1466'> +6.0023469e+01 </wgt>
<wgt id='1467'> +6.0012184e+01 </wgt>
<wgt id='1468'> +6.0114919e+01 </wgt>
<wgt id='1469'> +5.9890898e+01 </wgt>
<wgt id='1470'> +5.9867587e+01 </wgt>
<wgt id='1471'> +5.8738809e+01 </wgt>
<wgt id='1472'> +5.9260911e+01 </wgt>
<wgt id='1473'> +5.9631344e+01 </wgt>
<wgt id='1474'> +5.9881654e+01 </wgt>
<wgt id='1475'> +6.0063147e+01 </wgt>
<wgt id='1476'> +5.9816769e+01 </wgt>
<wgt id='1477'> +6.0093626e+01 </wgt>
<wgt id='1478'> +6.0024642e+01 </wgt>
<wgt id='1479'> +6.0011566e+01 </wgt>
<wgt id='1480'> +6.0789137e+01 </wgt>
<wgt id='1481'> +6.0192328e+01 </wgt>
<wgt id='1482'> +5.9525262e+01 </wgt>
<wgt id='1483'> +5.9265421e+01 </wgt>
<wgt id='1484'> +6.0818361e+01 </wgt>
<wgt id='1485'> +6.0753312e+01 </wgt>
<wgt id='1486'> +5.9328665e+01 </wgt>
<wgt id='1487'> +6.0017051e+01 </wgt>
<wgt id='1488'> +6.0025819e+01 </wgt>
<wgt id='1489'> +5.9805232e+01 </wgt>
<wgt id='1490'> +6.0255108e+01 </wgt>
<wgt id='1491'> +6.0288599e+01 </wgt>
<wgt id='1492'> +5.9803330e+01 </wgt>
<wgt id='1493'> +6.0366360e+01 </wgt>
<wgt id='1494'> +5.9443331e+01 </wgt>
<wgt id='1495'> +5.9405653e+01 </wgt>
<wgt id='1496'> +6.0403525e+01 </wgt>
<wgt id='1497'> +5.9565941e+01 </wgt>
<wgt id='1498'> +6.0696564e+01 </wgt>
<wgt id='1499'> +5.9926838e+01 </wgt>
<wgt id='1500'> +6.0095513e+01 </wgt>
<wgt id='1501'> +6.0314070e+01 </wgt>
<wgt id='1502'> +5.9714660e+01 </wgt>
<wgt id='1503'> +5.8779479e+01 </wgt>
<wgt id='1504'> +6.1403930e+01 </wgt>
<wgt id='1505'> +6.1374874e+01 </wgt>
<wgt id='1506'> +5.9287539e+01 </wgt>
<wgt id='1507'> +5.9920221e+01 </wgt>
<wgt id='1508'> +5.9974996e+01 </wgt>
<wgt id='1509'> +6.0414668e+01 </wgt>
<wgt id='1510'> +5.9462654e+01 </wgt>
<wgt id='1511'> +6.1554496e+01 </wgt>
<wgt id='1512'> +5.8354885e+01 </wgt>
<wgt id='1513'> +6.0726082e+01 </wgt>
<wgt id='1514'> +5.9335625e+01 </wgt>
<wgt id='1515'> +6.0135285e+01 </wgt>
<wgt id='1516'> +5.9926693e+01 </wgt>
<wgt id='1517'> +6.0040736e+01 </wgt>
<wgt id='1518'> +6.0021205e+01 </wgt>
<wgt id='1519'> +5.9305493e+01 </wgt>
<wgt id='1520'> +6.0083317e+01 </wgt>
<wgt id='1521'> +5.9537661e+01 </wgt>
<wgt id='1522'> +6.0944986e+01 </wgt>
<wgt id='1523'> +5.8646287e+01 </wgt>
<wgt id='1524'> +6.1335348e+01 </wgt>
<wgt id='1525'> +5.9467070e+01 </wgt>
<wgt id='1526'> +5.9457107e+01 </wgt>
<wgt id='1527'> +5.9537066e+01 </wgt>
<wgt id='1528'> +5.9421082e+01 </wgt>
<wgt id='1529'> +5.8605882e+01 </wgt>
<wgt id='1530'> +5.9336730e+01 </wgt>
<wgt id='1531'> +5.9614457e+01 </wgt>
<wgt id='1532'> +6.0072477e+01 </wgt>
<wgt id='1533'> +5.8625817e+01 </wgt>
<wgt id='1534'> +5.9148042e+01 </wgt>
<wgt id='1535'> +5.9453659e+01 </wgt>
<wgt id='1536'> +6.0750728e+01 </wgt>
<wgt id='1537'> +5.8568805e+01 </wgt>
<wgt id='1538'> +5.8751830e+01 </wgt>
<wgt id='1539'> +5.9922186e+01 </wgt>
<wgt id='1540'> +6.0609776e+01 </wgt>
<wgt id='1541'> +5.8678117e+01 </wgt>
<wgt id='1542'> +5.8478795e+01 </wgt>
<wgt id='1543'> +6.0635034e+01 </wgt>
<wgt id='1544'> +6.0204134e+01 </wgt>
<wgt id='1545'> +5.8691465e+01 </wgt>
<wgt id='1546'> +5.9706476e+01 </wgt>
<wgt id='1547'> +5.8997610e+01 </wgt>
<wgt id='1548'> +5.9229417e+01 </wgt>
<wgt id='1549'> +5.9706193e+01 </wgt>
<wgt id='1550'> +6.0181126e+01 </wgt>
<wgt id='1551'> +5.8756769e+01 </wgt>
<wgt id='1552'> +5.9478886e+01 </wgt>
<wgt id='1553'> +5.9458447e+01 </wgt>
<wgt id='1554'> +5.9276728e+01 </wgt>
<wgt id='1555'> +5.9536881e+01 </wgt>
<wgt id='1556'> +5.9689313e+01 </wgt>
<wgt id='1557'> +5.9178894e+01 </wgt>
<wgt id='1558'> +5.9056364e+01 </wgt>
<wgt id='1559'> +6.0367249e+01 </wgt>
<wgt id='1560'> +5.9152570e+01 </wgt>
<wgt id='1561'> +5.9794172e+01 </wgt>
<wgt id='1562'> +5.9625808e+01 </wgt>
<wgt id='1563'> +5.9233447e+01 </wgt>
<wgt id='1564'> +5.9517326e+01 </wgt>
<wgt id='1565'> +5.9482724e+01 </wgt>
<wgt id='1566'> +5.9508252e+01 </wgt>
<wgt id='1567'> +5.9489124e+01 </wgt>
<wgt id='1568'> +5.9709694e+01 </wgt>
<wgt id='1569'> +5.9699032e+01 </wgt>
<wgt id='1570'> +5.8898288e+01 </wgt>
<wgt id='1571'> +5.9643424e+01 </wgt>
<wgt id='1572'> +5.9102249e+01 </wgt>
<wgt id='1573'> +5.8683967e+01 </wgt>
<wgt id='1574'> +5.8574357e+01 </wgt>
<wgt id='1575'> +5.8872715e+01 </wgt>
<wgt id='1576'> +5.9537088e+01 </wgt>
<wgt id='1577'> +5.9487241e+01 </wgt>
<wgt id='1578'> +5.7930345e+01 </wgt>
<wgt id='1579'> +6.0255051e+01 </wgt>
<wgt id='1580'> +5.8907215e+01 </wgt>
<wgt id='1581'> +6.0365730e+01 </wgt>
<wgt id='1582'> +5.8171886e+01 </wgt>
<wgt id='1583'> +6.0748534e+01 </wgt>
<wgt id='1584'> +5.3454862e+01 </wgt>
<wgt id='1585'> +6.1199931e+01 </wgt>
<wgt id='1586'> +6.1217038e+01 </wgt>
<wgt id='1587'> +6.1176437e+01 </wgt>
<wgt id='1588'> +6.1258420e+01 </wgt>
<wgt id='1589'> +6.1158895e+01 </wgt>
<wgt id='1590'> +6.1520020e+01 </wgt>
<wgt id='1591'> +6.0902003e+01 </wgt>
<wgt id='1592'> +6.0948618e+01 </wgt>
<wgt id='1593'> +6.1480738e+01 </wgt>
<wgt id='1594'> +6.1269602e+01 </wgt>
<wgt id='1595'> +6.1128628e+01 </wgt>
<wgt id='1596'> +6.1269896e+01 </wgt>
<wgt id='1597'> +6.1047825e+01 </wgt>
<wgt id='1598'> +6.1173901e+01 </wgt>
<wgt id='1599'> +6.1246715e+01 </wgt>
<wgt id='1600'> +6.1077177e+01 </wgt>
<wgt id='1601'> +6.1269220e+01 </wgt>
<wgt id='1602'> +6.0956385e+01 </wgt>
<wgt id='1603'> +6.1486669e+01 </wgt>
<wgt id='1604'> +6.1268756e+01 </wgt>
<wgt id='1605'> +6.1140399e+01 </wgt>
<wgt id='1606'> +6.1079725e+01 </wgt>
<wgt id='1607'> +6.1357371e+01 </wgt>
<wgt id='1608'> +6.0844223e+01 </wgt>
<wgt id='1609'> +6.1439801e+01 </wgt>
<wgt id='1610'> +6.0965706e+01 </wgt>
<wgt id='1611'> +6.1437530e+01 </wgt>
<wgt id='1612'> +6.1263057e+01 </wgt>
<wgt id='1613'> +6.1180194e+01 </wgt>
<wgt id='1614'> +6.1178936e+01 </wgt>
<wgt id='1615'> +6.1230487e+01 </wgt>
<wgt id='1616'> +6.0760812e+01 </wgt>
<wgt id='1617'> +6.1687342e+01 </wgt>
<wgt id='1618'> +6.1435385e+01 </wgt>
<wgt id='1619'> +6.0967989e+01 </wgt>
<wgt id='1620'> +6.1257138e+01 </wgt>
<wgt id='1621'> +6.1074835e+01 </wgt>
<wgt id='1622'> +6.1265407e+01 </wgt>
<wgt id='1623'> +6.1179958e+01 </wgt>
<wgt id='1624'> +6.1083879e+01 </wgt>
<wgt id='1625'> +6.1328328e+01 </wgt>
<wgt id='1626'> +6.0806769e+01 </wgt>
<wgt id='1627'> +6.1643072e+01 </wgt>
<wgt id='1628'> +6.1732963e+01 </wgt>
<wgt id='1629'> +6.0891018e+01 </wgt>
<wgt id='1630'> +6.1138794e+01 </wgt>
<wgt id='1631'> +6.1349332e+01 </wgt>
<wgt id='1632'> +6.1797713e+01 </wgt>
<wgt id='1633'> +6.0136550e+01 </wgt>
<wgt id='1634'> +6.1480578e+01 </wgt>
<wgt id='1635'> +6.1037815e+01 </wgt>
<wgt id='1636'> +6.0173879e+01 </wgt>
<wgt id='1637'> +6.0137102e+01 </wgt>
<wgt id='1638'> +6.0224087e+01 </wgt>
<wgt id='1639'> +6.0367693e+01 </wgt>
<wgt id='1640'> +5.9984990e+01 </wgt>
<wgt id='1641'> +6.0349614e+01 </wgt>
<wgt id='1642'> +6.0104025e+01 </wgt>
<wgt id='1643'> +6.0075667e+01 </wgt>
<wgt id='1644'> +6.0275520e+01 </wgt>
<wgt id='1645'> +6.0222828e+01 </wgt>
<wgt id='1646'> +6.0129341e+01 </wgt>
<wgt id='1647'> +5.9938764e+01 </wgt>
<wgt id='1648'> +6.0275693e+01 </wgt>
<wgt id='1649'> +6.0175173e+01 </wgt>
<wgt id='1650'> +6.0175960e+01 </wgt>
<wgt id='1651'> +6.0127962e+01 </wgt>
<wgt id='1652'> +6.0223986e+01 </wgt>
<wgt id='1653'> +6.0267208e+01 </wgt>
<wgt id='1654'> +6.0122189e+01 </wgt>
<wgt id='1655'> +6.0159355e+01 </wgt>
<wgt id='1656'> +6.0196006e+01 </wgt>
<wgt id='1657'> +6.0083163e+01 </wgt>
<wgt id='1658'> +6.0237494e+01 </wgt>
<wgt id='1659'> +6.0813486e+01 </wgt>
<wgt id='1660'> +5.9575759e+01 </wgt>
<wgt id='1661'> +6.0386211e+01 </wgt>
<wgt id='1662'> +5.9649653e+01 </wgt>
<wgt id='1663'> +6.0274921e+01 </wgt>
<wgt id='1664'> +6.0064413e+01 </wgt>
<wgt id='1665'> +6.0194091e+01 </wgt>
<wgt id='1666'> +6.0170285e+01 </wgt>
<wgt id='1667'> +5.9977507e+01 </wgt>
<wgt id='1668'> +6.0579380e+01 </wgt>
<wgt id='1669'> +6.0202058e+01 </wgt>
<wgt id='1670'> +6.0114573e+01 </wgt>
<wgt id='1671'> +5.9961778e+01 </wgt>
<wgt id='1672'> +6.0264611e+01 </wgt>
<wgt id='1673'> +6.0168401e+01 </wgt>
<wgt id='1674'> +6.0159144e+01 </wgt>
<wgt id='1675'> +6.0015942e+01 </wgt>
<wgt id='1676'> +6.0295009e+01 </wgt>
<wgt id='1677'> +6.0171254e+01 </wgt>
<wgt id='1678'> +6.0114937e+01 </wgt>
<wgt id='1679'> +6.0232482e+01 </wgt>
<wgt id='1680'> +5.9843234e+01 </wgt>
<wgt id='1681'> +5.9335452e+01 </wgt>
<wgt id='1682'> +6.0661226e+01 </wgt>
<wgt id='1683'> +6.0461797e+01 </wgt>
<wgt id='1684'> +6.0034490e+01 </wgt>
<wgt id='1685'> +5.9803269e+01 </wgt>
<wgt id='1686'> +6.0319624e+01 </wgt>
<wgt id='1687'> +7.0784238e+01 </wgt>
<wgt id='1688'> +5.9949144e+01 </wgt>
<wgt id='1689'> +5.9942805e+01 </wgt>
<wgt id='1690'> +5.9966941e+01 </wgt>
<wgt id='1691'> +5.9951652e+01 </wgt>
<wgt id='1692'> +5.9947647e+01 </wgt>
<wgt id='1693'> +5.9837242e+01 </wgt>
<wgt id='1694'> +5.9993864e+01 </wgt>
<wgt id='1695'> +6.0038730e+01 </wgt>
<wgt id='1696'> +6.0080323e+01 </wgt>
<wgt id='1697'> +6.0195993e+01 </wgt>
<wgt id='1698'> +5.9891558e+01 </wgt>
<wgt id='1699'> +5.9951615e+01 </wgt>
<wgt id='1700'> +5.9745496e+01 </wgt>
<wgt id='1701'> +5.9852895e+01 </wgt>
<wgt id='1702'> +6.0063554e+01 </wgt>
<wgt id='1703'> +5.9915696e+01 </wgt>
<wgt id='1704'> +5.9995391e+01 </wgt>
<wgt id='1705'> +5.9984641e+01 </wgt>
<wgt id='1706'> +6.0063040e+01 </wgt>
<wgt id='1707'> +6.0023521e+01 </wgt>
<wgt id='1708'> +5.9855446e+01 </wgt>
<wgt id='1709'> +5.9915188e+01 </wgt>
<wgt id='1710'> +5.9775389e+01 </wgt>
<wgt id='1711'> +5.9929681e+01 </wgt>
<wgt id='1712'> +5.9854827e+01 </wgt>
<wgt id='1713'> +5.9998898e+01 </wgt>
<wgt id='1714'> +6.0045940e+01 </wgt>
<wgt id='1715'> +5.9950344e+01 </wgt>
<wgt id='1716'> +5.9996523e+01 </wgt>
<wgt id='1717'> +5.9709361e+01 </wgt>
<wgt id='1718'> +6.1067280e+01 </wgt>
<wgt id='1719'> +6.0781994e+01 </wgt>
<wgt id='1720'> +6.1647423e+01 </wgt>
<wgt id='1721'> +6.1331683e+01 </wgt>
<wgt id='1722'> +6.0822141e+01 </wgt>
<wgt id='1723'> +6.0845537e+01 </wgt>
<wgt id='1724'> +6.1370878e+01 </wgt>
<wgt id='1725'> +6.0520484e+01 </wgt>
<wgt id='1726'> +6.0457944e+01 </wgt>
<wgt id='1727'> +6.1308006e+01 </wgt>
<wgt id='1728'> +6.1951574e+01 </wgt>
<wgt id='1729'> +6.1016284e+01 </wgt>
<wgt id='1730'> +6.0654005e+01 </wgt>
<wgt id='1731'> +6.1162785e+01 </wgt>
<wgt id='1732'> +6.0230925e+01 </wgt>
<wgt id='1733'> +6.1371115e+01 </wgt>
<wgt id='1734'> +6.1028603e+01 </wgt>
<wgt id='1735'> +6.0816800e+01 </wgt>
<wgt id='1736'> +6.0799424e+01 </wgt>
<wgt id='1737'> +6.0773810e+01 </wgt>
<wgt id='1738'> +6.0922493e+01 </wgt>
<wgt id='1739'> +6.0831127e+01 </wgt>
<wgt id='1740'> +6.1247642e+01 </wgt>
<wgt id='1741'> +6.0869355e+01 </wgt>
<wgt id='1742'> +6.1095439e+01 </wgt>
<wgt id='1743'> +6.1099933e+01 </wgt>
<wgt id='1744'> +6.1002057e+01 </wgt>
<wgt id='1745'> +6.1029510e+01 </wgt>
<wgt id='1746'> +6.0982872e+01 </wgt>
<wgt id='1747'> +6.1009188e+01 </wgt>
<wgt id='1748'> +6.1118160e+01 </wgt>
<wgt id='1749'> +6.1049490e+01 </wgt>
<wgt id='1750'> +6.1066401e+01 </wgt>
<wgt id='1751'> +6.0954393e+01 </wgt>
<wgt id='1752'> +6.1094045e+01 </wgt>
<wgt id='1753'> +6.1199986e+01 </wgt>
<wgt id='1754'> +6.1035911e+01 </wgt>
<wgt id='1755'> +6.1076260e+01 </wgt>
<wgt id='1756'> +6.1046561e+01 </wgt>
<wgt id='1757'> +6.1097172e+01 </wgt>
<wgt id='1758'> +6.1109707e+01 </wgt>
<wgt id='1759'> +6.1116616e+01 </wgt>
<wgt id='1760'> +6.1112265e+01 </wgt>
<wgt id='1761'> +6.1002579e+01 </wgt>
<wgt id='1762'> +6.1151952e+01 </wgt>
<wgt id='1763'> +6.1103849e+01 </wgt>
<wgt id='1764'> +6.1128459e+01 </wgt>
<wgt id='1765'> +6.1015363e+01 </wgt>
<wgt id='1766'> +6.1031959e+01 </wgt>
<wgt id='1767'> +6.1079437e+01 </wgt>
<wgt id='1768'> +6.1032335e+01 </wgt>
<wgt id='1769'> +6.1020208e+01 </wgt>
<wgt id='1770'> +6.1038828e+01 </wgt>
<wgt id='1771'> +6.0999102e+01 </wgt>
<wgt id='1772'> +6.1027930e+01 </wgt>
<wgt id='1773'> +6.1072055e+01 </wgt>
<wgt id='1774'> +6.1052342e+01 </wgt>
<wgt id='1775'> +6.1074919e+01 </wgt>
<wgt id='1776'> +6.1141928e+01 </wgt>
<wgt id='1777'> +6.1047483e+01 </wgt>
<wgt id='1778'> +6.0989494e+01 </wgt>
<wgt id='1779'> +6.1088019e+01 </wgt>
<wgt id='1780'> +6.1030885e+01 </wgt>
<wgt id='1781'> +6.1067071e+01 </wgt>
<wgt id='1782'> +6.1046315e+01 </wgt>
<wgt id='1783'> +6.1080520e+01 </wgt>
<wgt id='1784'> +6.1088605e+01 </wgt>
<wgt id='1785'> +6.1065215e+01 </wgt>
<wgt id='1786'> +6.1105922e+01 </wgt>
<wgt id='1787'> +6.1092612e+01 </wgt>
<wgt id='1788'> +6.1046246e+01 </wgt>
<wgt id='1789'> +6.1024495e+01 </wgt>
<wgt id='1790'> +6.1037679e+01 </wgt>
<wgt id='1791'> +6.1041419e+01 </wgt>
<wgt id='1792'> +6.1044753e+01 </wgt>
<wgt id='1793'> +6.1055978e+01 </wgt>
<wgt id='1794'> +6.1070647e+01 </wgt>
<wgt id='1795'> +6.1040119e+01 </wgt>
<wgt id='1796'> +6.1060048e+01 </wgt>
<wgt id='1797'> +6.1111867e+01 </wgt>
<wgt id='1798'> +6.1064254e+01 </wgt>
<wgt id='1799'> +6.1092650e+01 </wgt>
<wgt id='1800'> +6.1034987e+01 </wgt>
<wgt id='1801'> +6.1084482e+01 </wgt>
<wgt id='1802'> +6.1101531e+01 </wgt>
<wgt id='1803'> +6.1081944e+01 </wgt>
<wgt id='1804'> +6.1122543e+01 </wgt>
<wgt id='1805'> +6.1073182e+01 </wgt>
<wgt id='1806'> +6.1065137e+01 </wgt>
<wgt id='1807'> +6.1066670e+01 </wgt>
<wgt id='1808'> +6.1068999e+01 </wgt>
<wgt id='1809'> +6.1041524e+01 </wgt>
<wgt id='1810'> +6.1062317e+01 </wgt>
<wgt id='1811'> +6.1051189e+01 </wgt>
<wgt id='1812'> +6.1060546e+01 </wgt>
<wgt id='1813'> +6.1063052e+01 </wgt>
<wgt id='1814'> +6.1059501e+01 </wgt>
<wgt id='1815'> +6.1079456e+01 </wgt>
<wgt id='1816'> +6.1080136e+01 </wgt>
<wgt id='1817'> +6.1072871e+01 </wgt>
<wgt id='1818'> +6.1067962e+01 </wgt>
<wgt id='1819'> +6.0351004e+01 </wgt>
<wgt id='1820'> +6.1712993e+01 </wgt>
<wgt id='1821'> +6.0376131e+01 </wgt>
<wgt id='1822'> +6.0365283e+01 </wgt>
<wgt id='1823'> +6.0624318e+01 </wgt>
<wgt id='1824'> +5.9968196e+01 </wgt>
<wgt id='1825'> +6.0375921e+01 </wgt>
<wgt id='1826'> +6.0760951e+01 </wgt>
<wgt id='1827'> +6.0204664e+01 </wgt>
<wgt id='1828'> +5.9952920e+01 </wgt>
<wgt id='1829'> +6.0254492e+01 </wgt>
<wgt id='1830'> +6.0396087e+01 </wgt>
<wgt id='1831'> +6.0031616e+01 </wgt>
<wgt id='1832'> +6.0993638e+01 </wgt>
<wgt id='1833'> +6.0549743e+01 </wgt>
<wgt id='1834'> +5.9787486e+01 </wgt>
<wgt id='1835'> +6.0200356e+01 </wgt>
<wgt id='1836'> +6.0270985e+01 </wgt>
<wgt id='1837'> +6.1064532e+01 </wgt>
<wgt id='1838'> +6.0089158e+01 </wgt>
<wgt id='1839'> +6.0337774e+01 </wgt>
<wgt id='1840'> +6.0414819e+01 </wgt>
<wgt id='1841'> +6.0765735e+01 </wgt>
<wgt id='1842'> +6.0282053e+01 </wgt>
<wgt id='1843'> +6.0502519e+01 </wgt>
<wgt id='1844'> +6.0083835e+01 </wgt>
<wgt id='1845'> +6.0247766e+01 </wgt>
<wgt id='1846'> +6.0489274e+01 </wgt>
<wgt id='1847'> +6.0383808e+01 </wgt>
<wgt id='1848'> +6.0315513e+01 </wgt>
<wgt id='1849'> +6.0422732e+01 </wgt>
<wgt id='1850'> +6.0438581e+01 </wgt>
<wgt id='1851'> +6.0413433e+01 </wgt>
<wgt id='1852'> +6.0323566e+01 </wgt>
<wgt id='1853'> +6.0414666e+01 </wgt>
<wgt id='1854'> +6.0437136e+01 </wgt>
<wgt id='1855'> +6.0377454e+01 </wgt>
<wgt id='1856'> +6.0441798e+01 </wgt>
<wgt id='1857'> +6.0389513e+01 </wgt>
<wgt id='1858'> +6.0427032e+01 </wgt>
<wgt id='1859'> +6.0406012e+01 </wgt>
<wgt id='1860'> +6.0375871e+01 </wgt>
<wgt id='1861'> +6.0329162e+01 </wgt>
<wgt id='1862'> +6.0373877e+01 </wgt>
<wgt id='1863'> +6.0385688e+01 </wgt>
<wgt id='1864'> +6.0311480e+01 </wgt>
<wgt id='1865'> +6.0395433e+01 </wgt>
<wgt id='1866'> +6.0393240e+01 </wgt>
<wgt id='1867'> +6.0295307e+01 </wgt>
<wgt id='1868'> +6.0378948e+01 </wgt>
<wgt id='1869'> +6.0406796e+01 </wgt>
<wgt id='1870'> +6.0341239e+01 </wgt>
<wgt id='1871'> +6.0385782e+01 </wgt>
<wgt id='1872'> +6.0410782e+01 </wgt>
<wgt id='1873'> +6.0409130e+01 </wgt>
<wgt id='1874'> +6.0373133e+01 </wgt>
<wgt id='1875'> +6.0344310e+01 </wgt>
<wgt id='1876'> +6.0352140e+01 </wgt>
<wgt id='1877'> +6.0428643e+01 </wgt>
<wgt id='1878'> +6.0382383e+01 </wgt>
<wgt id='1879'> +6.0308863e+01 </wgt>
<wgt id='1880'> +6.0341265e+01 </wgt>
<wgt id='1881'> +6.0348533e+01 </wgt>
<wgt id='1882'> +6.0383036e+01 </wgt>
<wgt id='1883'> +6.0386886e+01 </wgt>
<wgt id='1884'> +6.0399216e+01 </wgt>
<wgt id='1885'> +6.0370868e+01 </wgt>
<wgt id='1886'> +6.0366020e+01 </wgt>
<wgt id='1887'> +6.0377646e+01 </wgt>
<wgt id='1888'> +6.0397826e+01 </wgt>
<wgt id='1889'> +6.0394876e+01 </wgt>
<wgt id='1890'> +6.0420721e+01 </wgt>
<wgt id='1891'> +6.0363573e+01 </wgt>
<wgt id='1892'> +6.0419260e+01 </wgt>
<wgt id='1893'> +6.0420232e+01 </wgt>
<wgt id='1894'> +6.0360199e+01 </wgt>
<wgt id='1895'> +6.0386413e+01 </wgt>
<wgt id='1896'> +6.0373181e+01 </wgt>
<wgt id='1897'> +6.0368246e+01 </wgt>
<wgt id='1898'> +6.0389918e+01 </wgt>
<wgt id='1899'> +6.0376907e+01 </wgt>
<wgt id='1900'> +6.0365154e+01 </wgt>
<wgt id='1901'> +6.0436013e+01 </wgt>
<wgt id='1902'> +6.0372015e+01 </wgt>
<wgt id='1903'> +6.0395755e+01 </wgt>
<wgt id='1904'> +6.0354394e+01 </wgt>
<wgt id='1905'> +6.0349902e+01 </wgt>
<wgt id='1906'> +6.0347614e+01 </wgt>
<wgt id='1907'> +6.0391426e+01 </wgt>
<wgt id='1908'> +6.0319321e+01 </wgt>
<wgt id='1909'> +6.0353524e+01 </wgt>
<wgt id='1910'> +6.0353981e+01 </wgt>
<wgt id='1911'> +6.0386067e+01 </wgt>
<wgt id='1912'> +6.0362042e+01 </wgt>
<wgt id='1913'> +6.0369578e+01 </wgt>
<wgt id='1914'> +6.0362446e+01 </wgt>
<wgt id='1915'> +6.0363830e+01 </wgt>
<wgt id='1916'> +6.0381968e+01 </wgt>
<wgt id='1917'> +6.0363930e+01 </wgt>
<wgt id='1918'> +6.0382023e+01 </wgt>
<wgt id='1919'> +6.0371385e+01 </wgt>
<wgt id='1920'> +6.0360743e+01 </wgt>
<wgt id='1921'> +6.0376759e+01 </wgt>
<wgt id='1922'> +5.9726710e+01 </wgt>
<wgt id='1923'> +6.0984680e+01 </wgt>
<wgt id='1924'> +6.1072457e+01 </wgt>
<wgt id='1925'> +6.1459875e+01 </wgt>
<wgt id='1926'> +6.0565014e+01 </wgt>
<wgt id='1927'> +6.1042555e+01 </wgt>
<wgt id='1928'> +6.0106701e+01 </wgt>
<wgt id='1929'> +6.1981448e+01 </wgt>
<wgt id='1930'> +6.0799359e+01 </wgt>
<wgt id='1931'> +6.1051492e+01 </wgt>
<wgt id='1932'> +6.1268484e+01 </wgt>
<wgt id='1933'> +6.0807775e+01 </wgt>
<wgt id='1934'> +6.1261998e+01 </wgt>
<wgt id='1935'> +6.0743404e+01 </wgt>
<wgt id='1936'> +6.1087398e+01 </wgt>
<wgt id='1937'> +6.1155414e+01 </wgt>
<wgt id='1938'> +6.0959444e+01 </wgt>
<wgt id='1939'> +6.1036723e+01 </wgt>
<wgt id='1940'> +6.0821806e+01 </wgt>
<wgt id='1941'> +6.1569295e+01 </wgt>
<wgt id='1942'> +6.1171284e+01 </wgt>
<wgt id='1943'> +6.0910150e+01 </wgt>
<wgt id='1944'> +6.0932094e+01 </wgt>
<wgt id='1945'> +6.1020694e+01 </wgt>
<wgt id='1946'> +6.1038064e+01 </wgt>
<wgt id='1947'> +6.1110523e+01 </wgt>
<wgt id='1948'> +6.0990147e+01 </wgt>
<wgt id='1949'> +6.1017054e+01 </wgt>
<wgt id='1950'> +6.1303232e+01 </wgt>
<wgt id='1951'> +6.1220705e+01 </wgt>
<wgt id='1952'> +6.1793978e+01 </wgt>
<wgt id='1953'> +6.1107274e+01 </wgt>
<wgt id='1954'> +6.1040097e+01 </wgt>
<wgt id='1955'> +6.0351004e+01 </wgt>
<wgt id='1956'> +6.1712993e+01 </wgt>
<wgt id='1957'> +6.0378425e+01 </wgt>
<wgt id='1958'> +5.9487746e+01 </wgt>
<wgt id='1959'> +6.0633560e+01 </wgt>
<wgt id='1960'> +6.0344975e+01 </wgt>
<wgt id='1961'> +6.0659522e+01 </wgt>
<wgt id='1962'> +6.0034820e+01 </wgt>
<wgt id='1963'> +6.0413381e+01 </wgt>
<wgt id='1964'> +6.0260905e+01 </wgt>
<wgt id='1965'> +6.0346609e+01 </wgt>
<wgt id='1966'> +6.0175496e+01 </wgt>
<wgt id='1967'> +5.9968532e+01 </wgt>
<wgt id='1968'> +6.0165786e+01 </wgt>
<wgt id='1969'> +6.0410918e+01 </wgt>
<wgt id='1970'> +6.0512813e+01 </wgt>
<wgt id='1971'> +6.0247346e+01 </wgt>
<wgt id='1972'> +6.0320009e+01 </wgt>
<wgt id='1973'> +6.0342687e+01 </wgt>
<wgt id='1974'> +6.0750999e+01 </wgt>
<wgt id='1975'> +6.0340928e+01 </wgt>
<wgt id='1976'> +6.0339113e+01 </wgt>
<wgt id='1977'> +6.0560280e+01 </wgt>
<wgt id='1978'> +6.0492696e+01 </wgt>
<wgt id='1979'> +6.1265990e+01 </wgt>
<wgt id='1980'> +6.0410023e+01 </wgt>
<wgt id='1981'> +6.0421105e+01 </wgt>
<wgt id='1982'> +6.0391789e+01 </wgt>
<wgt id='1983'> +6.0379500e+01 </wgt>
<wgt id='1984'> +6.0378117e+01 </wgt>
<wgt id='1985'> +6.0421082e+01 </wgt>
<wgt id='1986'> +6.0381886e+01 </wgt>
<wgt id='1987'> +6.0374362e+01 </wgt>
<wgt id='1988'> +5.9726710e+01 </wgt>
<wgt id='1989'> +6.0984680e+01 </wgt>
<wgt id='1990'> +6.0184568e+01 </wgt>
<wgt id='1991'> +6.0102081e+01 </wgt>
<wgt id='1992'> +6.0266816e+01 </wgt>
<wgt id='1993'> +6.0238409e+01 </wgt>
<wgt id='1994'> +6.0130737e+01 </wgt>
<wgt id='1995'> +6.0286967e+01 </wgt>
<wgt id='1996'> +6.0082524e+01 </wgt>
<wgt id='1997'> +6.0485767e+01 </wgt>
<wgt id='1998'> +5.9890151e+01 </wgt>
<wgt id='1999'> +6.0155112e+01 </wgt>
<wgt id='2000'> +6.0215362e+01 </wgt>
<wgt id='2001'> +5.9852070e+01 </wgt>
<wgt id='2002'> +6.0558658e+01 </wgt>
<wgt id='2003'> +5.9969337e+01 </wgt>
<wgt id='2004'> +6.0403477e+01 </wgt>
<wgt id='2005'> +6.0245235e+01 </wgt>
<wgt id='2006'> +6.0005590e+01 </wgt>
<wgt id='2007'> +6.0472117e+01 </wgt>
<wgt id='2008'> +5.9993419e+01 </wgt>
<wgt id='2009'> +6.0100029e+01 </wgt>
<wgt id='2010'> +6.0219549e+01 </wgt>
<wgt id='2011'> +6.0311821e+01 </wgt>
<wgt id='2012'> +6.0041811e+01 </wgt>
<wgt id='2013'> +5.9764825e+01 </wgt>
<wgt id='2014'> +6.0446295e+01 </wgt>
<wgt id='2015'> +6.0116135e+01 </wgt>
<wgt id='2016'> +6.0296686e+01 </wgt>
<wgt id='2017'> +6.0714336e+01 </wgt>
<wgt id='2018'> +5.9709308e+01 </wgt>
<wgt id='2019'> +6.0184568e+01 </wgt>
<wgt id='2020'> +6.0291859e+01 </wgt>
<wgt id='2021'> +5.9869707e+01 </wgt>
<wgt id='2022'> +6.0294177e+01 </wgt>
<wgt id='2023'> +5.9956823e+01 </wgt>
<wgt id='2024'> +6.0223224e+01 </wgt>
<wgt id='2025'> +6.0159940e+01 </wgt>
<wgt id='2026'> +6.0029454e+01 </wgt>
<wgt id='2027'> +6.0257363e+01 </wgt>
<wgt id='2028'> +6.0362592e+01 </wgt>
<wgt id='2029'> +5.9924725e+01 </wgt>
<wgt id='2030'> +5.9977535e+01 </wgt>
<wgt id='2031'> +5.9991156e+01 </wgt>
<wgt id='2032'> +5.9689442e+01 </wgt>
<wgt id='2033'> +5.9604302e+01 </wgt>
<wgt id='2034'> +5.9411939e+01 </wgt>
<wgt id='2035'> +5.9533312e+01 </wgt>
<wgt id='2036'> +5.9462723e+01 </wgt>
<wgt id='2037'> +5.9482873e+01 </wgt>
<wgt id='2038'> +5.9563777e+01 </wgt>
<wgt id='2039'> +5.9381764e+01 </wgt>
<wgt id='2040'> +5.9834295e+01 </wgt>
<wgt id='2041'> +5.9121372e+01 </wgt>
<wgt id='2042'> +5.9265892e+01 </wgt>
<wgt id='2043'> +5.9687674e+01 </wgt>
<wgt id='2044'> +5.9673190e+01 </wgt>
<wgt id='2045'> +5.9274157e+01 </wgt>
<wgt id='2046'> +5.9359024e+01 </wgt>
<wgt id='2047'> +5.9580888e+01 </wgt>
<wgt id='2048'> +5.9382611e+01 </wgt>
<wgt id='2049'> +5.9399415e+01 </wgt>
<wgt id='2050'> +5.9490168e+01 </wgt>
<wgt id='2051'> +5.9455683e+01 </wgt>
<wgt id='2052'> +5.9344117e+01 </wgt>
<wgt id='2053'> +5.9606718e+01 </wgt>
<wgt id='2054'> +5.9423168e+01 </wgt>
<wgt id='2055'> +5.9499200e+01 </wgt>
<wgt id='2056'> +5.9314150e+01 </wgt>
<wgt id='2057'> +5.9640176e+01 </wgt>
<wgt id='2058'> +5.8899911e+01 </wgt>
<wgt id='2059'> +5.9979175e+01 </wgt>
<wgt id='2060'> +5.9266385e+01 </wgt>
<wgt id='2061'> +5.9720364e+01 </wgt>
<wgt id='2062'> +5.9577666e+01 </wgt>
<wgt id='2063'> +5.9631634e+01 </wgt>
<wgt id='2064'> +5.9011395e+01 </wgt>
<wgt id='2065'> +5.9607508e+01 </wgt>
<wgt id='2066'> +5.9299058e+01 </wgt>
<wgt id='2067'> +5.8918090e+01 </wgt>
<wgt id='2068'> +5.9120082e+01 </wgt>
<wgt id='2069'> +5.9340547e+01 </wgt>
<wgt id='2070'> +5.9705694e+01 </wgt>
<wgt id='2071'> +5.9572042e+01 </wgt>
<wgt id='2072'> +5.8564624e+01 </wgt>
<wgt id='2073'> +5.9312774e+01 </wgt>
<wgt id='2074'> +5.9784834e+01 </wgt>
<wgt id='2075'> +5.9460214e+01 </wgt>
<wgt id='2076'> +5.9319602e+01 </wgt>
<wgt id='2077'> +5.9311902e+01 </wgt>
<wgt id='2078'> +5.9304238e+01 </wgt>
<wgt id='2079'> +5.9296542e+01 </wgt>
<wgt id='2080'> +5.9288895e+01 </wgt>
<wgt id='2081'> +5.9281457e+01 </wgt>
<wgt id='2082'> +5.9273710e+01 </wgt>
<wgt id='2083'> +5.9266044e+01 </wgt>
<wgt id='2084'> +5.9258417e+01 </wgt>
<wgt id='2085'> +5.9250752e+01 </wgt>
<wgt id='2086'> +5.9243005e+01 </wgt>
<wgt id='2087'> +5.9235639e+01 </wgt>
<wgt id='2088'> +5.9227961e+01 </wgt>
<wgt id='2089'> +5.9220313e+01 </wgt>
<wgt id='2090'> +5.9212584e+01 </wgt>
<wgt id='2091'> +5.9204948e+01 </wgt>
<wgt id='2092'> +5.9197283e+01 </wgt>
<wgt id='2093'> +5.9189653e+01 </wgt>
<wgt id='2094'> +5.9182102e+01 </wgt>
<wgt id='2095'> +5.9174424e+01 </wgt>
<wgt id='2096'> +5.9166843e+01 </wgt>
<wgt id='2097'> +5.9159187e+01 </wgt>
<wgt id='2098'> +5.9151423e+01 </wgt>
<wgt id='2099'> +5.9143812e+01 </wgt>
<wgt id='2100'> +5.9136164e+01 </wgt>
<wgt id='2101'> +5.9128759e+01 </wgt>
<wgt id='2102'> +5.9121049e+01 </wgt>
<wgt id='2103'> +5.9113402e+01 </wgt>
<wgt id='2104'> +5.9105711e+01 </wgt>
<wgt id='2105'> +5.9098059e+01 </wgt>
<wgt id='2106'> +5.9090407e+01 </wgt>
<wgt id='2107'> +5.9665954e+01 </wgt>
<wgt id='2108'> +5.9653475e+01 </wgt>
<wgt id='2109'> +5.9906475e+01 </wgt>
<wgt id='2110'> +5.9268180e+01 </wgt>
<wgt id='2111'> +5.9667368e+01 </wgt>
<wgt id='2112'> +6.0048685e+01 </wgt>
<wgt id='2113'> +5.9500844e+01 </wgt>
<wgt id='2114'> +5.9247285e+01 </wgt>
<wgt id='2115'> +5.9545068e+01 </wgt>
<wgt id='2116'> +5.9688188e+01 </wgt>
<wgt id='2117'> +5.9327973e+01 </wgt>
<wgt id='2118'> +6.0278462e+01 </wgt>
<wgt id='2119'> +5.9838941e+01 </wgt>
<wgt id='2120'> +5.9089390e+01 </wgt>
<wgt id='2121'> +5.9488027e+01 </wgt>
<wgt id='2122'> +5.9551831e+01 </wgt>
<wgt id='2123'> +6.0348796e+01 </wgt>
<wgt id='2124'> +5.9381460e+01 </wgt>
<wgt id='2125'> +5.9627686e+01 </wgt>
<wgt id='2126'> +5.9707075e+01 </wgt>
<wgt id='2127'> +6.0054962e+01 </wgt>
<wgt id='2128'> +5.9567812e+01 </wgt>
<wgt id='2129'> +5.9793043e+01 </wgt>
<wgt id='2130'> +5.9373999e+01 </wgt>
<wgt id='2131'> +5.9535487e+01 </wgt>
<wgt id='2132'> +5.9775137e+01 </wgt>
<wgt id='2133'> +5.9670287e+01 </wgt>
<wgt id='2134'> +5.9609074e+01 </wgt>
<wgt id='2135'> +5.9714112e+01 </wgt>
<wgt id='2136'> +5.9727587e+01 </wgt>
<wgt id='2137'> +5.9702956e+01 </wgt>
<wgt id='2138'> +5.9616884e+01 </wgt>
<wgt id='2139'> +5.9703541e+01 </wgt>
<wgt id='2140'> +5.9726775e+01 </wgt>
<wgt id='2141'> +5.9666541e+01 </wgt>
<wgt id='2142'> +5.9731516e+01 </wgt>
<wgt id='2143'> +5.9679409e+01 </wgt>
<wgt id='2144'> +5.9717558e+01 </wgt>
<wgt id='2145'> +5.9695432e+01 </wgt>
<wgt id='2146'> +5.9664416e+01 </wgt>
<wgt id='2147'> +5.9619259e+01 </wgt>
<wgt id='2148'> +5.9661379e+01 </wgt>
<wgt id='2149'> +5.9673532e+01 </wgt>
<wgt id='2150'> +5.9604575e+01 </wgt>
<wgt id='2151'> +5.9685222e+01 </wgt>
<wgt id='2152'> +5.9681228e+01 </wgt>
<wgt id='2153'> +5.9586680e+01 </wgt>
<wgt id='2154'> +5.9666986e+01 </wgt>
<wgt id='2155'> +5.9696381e+01 </wgt>
<wgt id='2156'> +5.9630161e+01 </wgt>
<wgt id='2157'> +5.9676031e+01 </wgt>
<wgt id='2158'> +5.9700472e+01 </wgt>
<wgt id='2159'> +5.9698315e+01 </wgt>
<wgt id='2160'> +5.9664298e+01 </wgt>
<wgt id='2161'> +5.9635173e+01 </wgt>
<wgt id='2162'> +5.9642557e+01 </wgt>
<wgt id='2163'> +5.9716913e+01 </wgt>
<wgt id='2164'> +5.9671639e+01 </wgt>
<wgt id='2165'> +5.9601240e+01 </wgt>
<wgt id='2166'> +5.9632073e+01 </wgt>
<wgt id='2167'> +5.9639162e+01 </wgt>
<wgt id='2168'> +5.9672893e+01 </wgt>
<wgt id='2169'> +5.9676122e+01 </wgt>
<wgt id='2170'> +5.9689037e+01 </wgt>
<wgt id='2171'> +5.9660454e+01 </wgt>
<wgt id='2172'> +5.9655952e+01 </wgt>
<wgt id='2173'> +5.9667730e+01 </wgt>
<wgt id='2174'> +5.9686927e+01 </wgt>
<wgt id='2175'> +5.9684735e+01 </wgt>
<wgt id='2176'> +5.9709782e+01 </wgt>
<wgt id='2177'> +5.9653099e+01 </wgt>
<wgt id='2178'> +5.9709526e+01 </wgt>
<wgt id='2179'> +5.9709800e+01 </wgt>
<wgt id='2180'> +5.9649247e+01 </wgt>
<wgt id='2181'> +5.9676220e+01 </wgt>
<wgt id='2182'> +5.9662950e+01 </wgt>
<wgt id='2183'> +5.9659292e+01 </wgt>
<wgt id='2184'> +5.9679843e+01 </wgt>
<wgt id='2185'> +5.9668007e+01 </wgt>
<wgt id='2186'> +5.9654873e+01 </wgt>
<wgt id='2187'> +5.9724321e+01 </wgt>
<wgt id='2188'> +5.9662459e+01 </wgt>
<wgt id='2189'> +5.9685799e+01 </wgt>
<wgt id='2190'> +5.9644032e+01 </wgt>
<wgt id='2191'> +5.9639606e+01 </wgt>
<wgt id='2192'> +5.9638232e+01 </wgt>
<wgt id='2193'> +5.9682069e+01 </wgt>
<wgt id='2194'> +5.9609439e+01 </wgt>
<wgt id='2195'> +5.9643297e+01 </wgt>
<wgt id='2196'> +5.9643613e+01 </wgt>
<wgt id='2197'> +5.9675677e+01 </wgt>
<wgt id='2198'> +5.9651704e+01 </wgt>
<wgt id='2199'> +5.9659309e+01 </wgt>
<wgt id='2200'> +5.9652448e+01 </wgt>
<wgt id='2201'> +5.9653427e+01 </wgt>
<wgt id='2202'> +5.9672099e+01 </wgt>
<wgt id='2203'> +5.9653900e+01 </wgt>
<wgt id='2204'> +5.9671807e+01 </wgt>
<wgt id='2205'> +5.9661314e+01 </wgt>
<wgt id='2206'> +5.9650678e+01 </wgt>
<wgt id='2207'> +5.9666699e+01 </wgt>
<wgt id='2208'> +5.9665267e+01 </wgt>
<wgt id='2209'> +5.9661434e+01 </wgt>
<wgt id='2210'> +5.9666673e+01 </wgt>
<wgt id='2211'> +5.9666790e+01 </wgt>
<wgt id='2212'> +5.9668050e+01 </wgt>
<wgt id='2213'> +5.9666259e+01 </wgt>
<wgt id='2214'> +5.9662938e+01 </wgt>
<wgt id='2215'> +6.2665899e+01 </wgt>
<wgt id='2216'> +6.0632554e+01 </wgt>
<wgt id='2217'> +6.2426957e+01 </wgt>
<wgt id='2218'> +6.3047411e+01 </wgt>
<wgt id='2219'> +6.1878405e+01 </wgt>
<wgt id='2220'> +5.8145429e+01 </wgt>
<wgt id='2221'> +6.3992657e+01 </wgt>
<wgt id='2222'> +6.2689135e+01 </wgt>
<wgt id='2223'> +6.3221704e+01 </wgt>
<wgt id='2224'> +6.3523052e+01 </wgt>
<wgt id='2225'> +6.0259916e+01 </wgt>
<wgt id='2226'> +5.8813287e+01 </wgt>
<wgt id='2227'> +6.3813540e+01 </wgt>
<wgt id='2228'> +6.3568025e+01 </wgt>
<wgt id='2229'> +6.1215332e+01 </wgt>
<wgt id='2230'> +6.3824351e+01 </wgt>
<wgt id='2231'> +6.3630405e+01 </wgt>
<wgt id='2232'> +6.2754055e+01 </wgt>
<wgt id='2233'> +6.3351765e+01 </wgt>
<wgt id='2234'> +6.3900010e+01 </wgt>
<wgt id='2235'> +6.5180334e+01 </wgt>
<wgt id='2236'> +6.3080622e+01 </wgt>
<wgt id='2237'> +6.1228519e+01 </wgt>
<wgt id='2238'> +6.6709302e+01 </wgt>
<wgt id='2239'> +6.2275631e+01 </wgt>
<wgt id='2240'> +6.2593847e+01 </wgt>
<wgt id='2241'> +6.2653363e+01 </wgt>
<wgt id='2242'> +6.2956794e+01 </wgt>
<wgt id='2243'> +6.1970676e+01 </wgt>
<wgt id='2244'> +6.3268984e+01 </wgt>
<wgt id='2245'> +6.4368633e+01 </wgt>
<wgt id='2246'> +6.1873164e+01 </wgt>
<wgt id='2247'> +6.0705769e+01 </wgt>
<wgt id='2248'> +6.1915279e+01 </wgt>
<wgt id='2249'> +6.2325929e+01 </wgt>
<wgt id='2250'> +6.4101346e+01 </wgt>
<wgt id='2251'> +6.3645059e+01 </wgt>
<wgt id='2252'> +6.3765876e+01 </wgt>
<wgt id='2253'> +6.3351423e+01 </wgt>
<wgt id='2254'> +6.1815118e+01 </wgt>
<wgt id='2255'> +6.2378660e+01 </wgt>
<wgt id='2256'> +6.3397124e+01 </wgt>
<wgt id='2257'> +6.2368041e+01 </wgt>
<wgt id='2258'> +6.2213051e+01 </wgt>
<wgt id='2259'> +6.2196087e+01 </wgt>
<wgt id='2260'> +6.1974180e+01 </wgt>
<wgt id='2261'> +6.3822935e+01 </wgt>
<wgt id='2262'> +6.2165436e+01 </wgt>
<wgt id='2263'> +6.2564139e+01 </wgt>
<wgt id='2264'> +6.2328802e+01 </wgt>
<wgt id='2265'> +6.2114180e+01 </wgt>
<wgt id='2266'> +6.2161282e+01 </wgt>
<wgt id='2267'> +6.1593405e+01 </wgt>
<wgt id='2268'> +6.3125856e+01 </wgt>
<wgt id='2269'> +6.2840874e+01 </wgt>
<wgt id='2270'> +6.1921277e+01 </wgt>
<wgt id='2271'> +6.1941213e+01 </wgt>
<wgt id='2272'> +6.4398877e+01 </wgt>
<wgt id='2273'> +6.1434893e+01 </wgt>
<wgt id='2274'> +6.3891477e+01 </wgt>
<wgt id='2275'> +6.2548657e+01 </wgt>
<wgt id='2276'> +6.2971370e+01 </wgt>
<wgt id='2277'> +6.2990209e+01 </wgt>
<wgt id='2278'> +6.2670556e+01 </wgt>
<wgt id='2279'> +6.1633827e+01 </wgt>
<wgt id='2280'> +6.3424360e+01 </wgt>
<wgt id='2281'> +6.2117402e+01 </wgt>
<wgt id='2282'> +6.7052511e+01 </wgt>
<wgt id='2283'> +6.2103239e+01 </wgt>
<wgt id='2284'> +6.0765954e+01 </wgt>
<wgt id='2285'> +6.1459933e+01 </wgt>
<wgt id='2286'> +6.2568022e+01 </wgt>
<wgt id='2287'> +6.3032927e+01 </wgt>
<wgt id='2288'> +5.9664560e+01 </wgt>
<wgt id='2289'> +6.3104363e+01 </wgt>
<wgt id='2290'> +6.2417103e+01 </wgt>
<wgt id='2291'> +6.0386306e+01 </wgt>
<wgt id='2292'> +6.2072589e+01 </wgt>
<wgt id='2293'> +6.4205223e+01 </wgt>
<wgt id='2294'> +6.2459448e+01 </wgt>
<wgt id='2295'> +6.2273455e+01 </wgt>
<wgt id='2296'> +6.2618957e+01 </wgt>
<wgt id='2297'> +6.1255188e+01 </wgt>
<wgt id='2298'> +6.4999733e+01 </wgt>
<wgt id='2299'> +6.2486207e+01 </wgt>
<wgt id='2300'> +6.1583353e+01 </wgt>
<wgt id='2301'> +6.1997459e+01 </wgt>
<wgt id='2302'> +6.2436675e+01 </wgt>
<wgt id='2303'> +6.2750058e+01 </wgt>
<wgt id='2304'> +6.5583713e+01 </wgt>
<wgt id='2305'> +6.1669948e+01 </wgt>
<wgt id='2306'> +6.2346826e+01 </wgt>
<wgt id='2307'> +6.2998693e+01 </wgt>
<wgt id='2308'> +6.3064887e+01 </wgt>
<wgt id='2309'> +6.3657195e+01 </wgt>
<wgt id='2310'> +6.1547129e+01 </wgt>
<wgt id='2311'> +6.3796466e+01 </wgt>
<wgt id='2312'> +6.2983235e+01 </wgt>
<wgt id='2313'> +6.4006461e+01 </wgt>
<wgt id='2314'> +6.4296505e+01 </wgt>
<wgt id='2315'> +6.3803695e+01 </wgt>
<wgt id='2316'> +6.2112896e+01 </wgt>
<wgt id='2317'> +6.2934345e+01 </wgt>
<wgt id='2318'> +6.1132979e+01 </wgt>
<wgt id='2319'> +6.1199594e+01 </wgt>
<wgt id='2320'> +6.9331416e+01 </wgt>
<wgt id='2321'> +6.5390320e+01 </wgt>
<wgt id='2322'> +6.7153114e+01 </wgt>
</rwgt>
</event>
</LesHouchesEvents>
